

     ************************************************************************
     *************** Dalton - An Electronic Structure Program ***************
     ************************************************************************

    This is output from DALTON release Dalton2016.2 (2016)
         ( Web site: http://daltonprogram.org )

   ----------------------------------------------------------------------------

    NOTE:
     
    Dalton is an experimental code for the evaluation of molecular
    properties using (MC)SCF, DFT, CI, and CC wave functions.
    The authors accept no responsibility for the performance of
    the code or for the correctness of the results.
     
    The code (in whole or part) is provided under a licence and
    is not to be reproduced for further distribution without
    the written permission of the authors or their representatives.
     
    See the home page "http://daltonprogram.org" for further information.
     
    If results obtained with this code are published,
    the appropriate citations would be both of:
     
       K. Aidas, C. Angeli, K. L. Bak, V. Bakken, R. Bast,
       L. Boman, O. Christiansen, R. Cimiraglia, S. Coriani,
       P. Dahle, E. K. Dalskov, U. Ekstroem,
       T. Enevoldsen, J. J. Eriksen, P. Ettenhuber, B. Fernandez,
       L. Ferrighi, H. Fliegl, L. Frediani, K. Hald, A. Halkier,
       C. Haettig, H. Heiberg, T. Helgaker, A. C. Hennum,
       H. Hettema, E. Hjertenaes, S. Hoest, I.-M. Hoeyvik,
       M. F. Iozzi, B. Jansik, H. J. Aa. Jensen, D. Jonsson,
       P. Joergensen, J. Kauczor, S. Kirpekar,
       T. Kjaergaard, W. Klopper, S. Knecht, R. Kobayashi, H. Koch,
       J. Kongsted, A. Krapp, K. Kristensen, A. Ligabue,
       O. B. Lutnaes, J. I. Melo, K. V. Mikkelsen, R. H. Myhre,
       C. Neiss, C. B. Nielsen, P. Norman, J. Olsen,
       J. M. H. Olsen, A. Osted, M. J. Packer, F. Pawlowski,
       T. B. Pedersen, P. F. Provasi, S. Reine, Z. Rinkevicius,
       T. A. Ruden, K. Ruud, V. Rybkin, P. Salek, C. C. M. Samson,
       A. Sanchez de Meras, T. Saue, S. P. A. Sauer,
       B. Schimmelpfennig, K. Sneskov, A. H. Steindal,
       K. O. Sylvester-Hvid, P. R. Taylor, A. M. Teale,
       E. I. Tellgren, D. P. Tew, A. J. Thorvaldsen, L. Thoegersen,
       O. Vahtras, M. A. Watson, D. J. D. Wilson, M. Ziolkowski
       and H. Agren,
       "The Dalton quantum chemistry program system",
       WIREs Comput. Mol. Sci. 2014, 4:269–284 (doi: 10.1002/wcms.1172)
     
    and
     
       Dalton, a Molecular Electronic Structure Program,
       Release Dalton2016.2 (2016), see http://daltonprogram.org
   ----------------------------------------------------------------------------

    Authors in alphabetical order (major contribution(s) in parenthesis):

  Kestutis Aidas,           Vilnius University,           Lithuania   (QM/MM)
  Celestino Angeli,         University of Ferrara,        Italy       (NEVPT2)
  Keld L. Bak,              UNI-C,                        Denmark     (AOSOPPA, non-adiabatic coupling, magnetic properties)
  Vebjoern Bakken,          University of Oslo,           Norway      (DALTON; geometry optimizer, symmetry detection)
  Radovan Bast,             UiT The Arctic U. of Norway,  Norway      (DALTON installation and execution frameworks)
  Pablo Baudin,             University of Valencia,       Spain       (Cholesky excitation energies)
  Linus Boman,              NTNU,                         Norway      (Cholesky decomposition and subsystems)
  Ove Christiansen,         Aarhus University,            Denmark     (CC module)
  Renzo Cimiraglia,         University of Ferrara,        Italy       (NEVPT2)
  Sonia Coriani,            University of Trieste,        Italy       (CC module, MCD in RESPONS)
  Janusz Cukras,            University of Trieste,        Italy       (MChD in RESPONS)
  Paal Dahle,               University of Oslo,           Norway      (Parallelization)
  Erik K. Dalskov,          UNI-C,                        Denmark     (SOPPA)
  Thomas Enevoldsen,        Univ. of Southern Denmark,    Denmark     (SOPPA)
  Janus J. Eriksen,         Aarhus University,            Denmark     (Polarizable embedding model, TDA)
  Rasmus Faber,             University of Copenhagen,     Denmark     (Vib.avg. NMR with SOPPA, parallel AO-SOPPA)
  Berta Fernandez,          U. of Santiago de Compostela, Spain       (doublet spin, ESR in RESPONS)
  Lara Ferrighi,            Aarhus University,            Denmark     (PCM Cubic response)
  Heike Fliegl,             University of Oslo,           Norway      (CCSD(R12))
  Luca Frediani,            UiT The Arctic U. of Norway,  Norway      (PCM)
  Bin Gao,                  UiT The Arctic U. of Norway,  Norway      (Gen1Int library)
  Christof Haettig,         Ruhr-University Bochum,       Germany     (CC module)
  Kasper Hald,              Aarhus University,            Denmark     (CC module)
  Asger Halkier,            Aarhus University,            Denmark     (CC module)
  Frederik Beyer Hansen,    University of Copenhagen,     Denmark     (Parallel AO-SOPPA)
  Erik D. Hedegaard,        Univ. of Southern Denmark,    Denmark     (Polarizable embedding model, QM/MM)
  Hanne Heiberg,            University of Oslo,           Norway      (geometry analysis, selected one-electron integrals)
  Trygve Helgaker,          University of Oslo,           Norway      (DALTON; ABACUS, ERI, DFT modules, London, and much more)
  Alf Christian Hennum,     University of Oslo,           Norway      (Parity violation)
  Hinne Hettema,            University of Auckland,       New Zealand (quadratic response in RESPONS; SIRIUS supersymmetry)
  Eirik Hjertenaes,         NTNU,                         Norway      (Cholesky decomposition)
  Maria Francesca Iozzi,    University of Oslo,           Norway      (RPA)
  Brano Jansik              Technical Univ. of Ostrava    Czech Rep.  (DFT cubic response)
  Hans Joergen Aa. Jensen,  Univ. of Southern Denmark,    Denmark     (DALTON; SIRIUS, RESPONS, ABACUS modules, London, and much more)
  Dan Jonsson,              UiT The Arctic U. of Norway,  Norway      (cubic response in RESPONS module)
  Poul Joergensen,          Aarhus University,            Denmark     (RESPONS, ABACUS, and CC modules)
  Maciej Kaminski,          University of Warsaw,         Poland      (CPPh in RESPONS)
  Joanna Kauczor,           Linkoeping University,        Sweden      (Complex polarization propagator (CPP) module)
  Sheela Kirpekar,          Univ. of Southern Denmark,    Denmark     (Mass-velocity & Darwin integrals)
  Wim Klopper,              KIT Karlsruhe,                Germany     (R12 code in CC, SIRIUS, and ABACUS modules)
  Stefan Knecht,            ETH Zurich,                   Switzerland (Parallel CI and MCSCF)
  Rika Kobayashi,           Australian National Univ.,    Australia   (DIIS in CC, London in MCSCF)
  Henrik Koch,              NTNU,                         Norway      (CC module, Cholesky decomposition)
  Jacob Kongsted,           Univ. of Southern Denmark,    Denmark     (Polarizable embedding model, QM/MM)
  Andrea Ligabue,           University of Modena,         Italy       (CTOCD, AOSOPPA)
  Nanna H. List             Univ. of Southern Denmark,    Denmark     (Polarizable embedding model)
  Ola B. Lutnaes,           University of Oslo,           Norway      (DFT Hessian)
  Juan I. Melo,             University of Buenos Aires,   Argentina   (LRESC, Relativistic Effects on NMR Shieldings)
  Kurt V. Mikkelsen,        University of Copenhagen,     Denmark     (MC-SCRF and QM/MM)
  Rolf H. Myhre,            NTNU,                         Norway      (Cholesky, subsystems and ECC2)
  Christian Neiss,          Univ. Erlangen-Nuernberg,     Germany     (CCSD(R12))
  Christian B. Nielsen,     University of Copenhagen,     Denmark     (QM/MM)
  Patrick Norman,           Linkoeping University,        Sweden      (Cubic response and complex frequency response in RESPONS)
  Jeppe Olsen,              Aarhus University,            Denmark     (SIRIUS CI/density modules)
  Jogvan Magnus H. Olsen,   Univ. of Southern Denmark,    Denmark     (Polarizable embedding model, QM/MM)
  Anders Osted,             Copenhagen University,        Denmark     (QM/MM)
  Martin J. Packer,         University of Sheffield,      UK          (SOPPA)
  Filip Pawlowski,          Kazimierz Wielki University,  Poland      (CC3)
  Morten N. Pedersen,       Univ. of Southern Denmark,    Denmark     (Polarizable embedding model)
  Thomas B. Pedersen,       University of Oslo,           Norway      (Cholesky decomposition)
  Patricio F. Provasi,      University of Northeastern,   Argentina   (Analysis of coupling constants in localized orbitals)
  Zilvinas Rinkevicius,     KTH Stockholm,                Sweden      (open-shell DFT, ESR)
  Elias Rudberg,            KTH Stockholm,                Sweden      (DFT grid and basis info)
  Torgeir A. Ruden,         University of Oslo,           Norway      (Numerical derivatives in ABACUS)
  Kenneth Ruud,             UiT The Arctic U. of Norway,  Norway      (DALTON; ABACUS magnetic properties and much more)
  Pawel Salek,              KTH Stockholm,                Sweden      (DALTON; DFT code)
  Claire C. M. Samson       University of Karlsruhe       Germany     (Boys localization, r12 integrals in ERI)
  Alfredo Sanchez de Meras, University of Valencia,       Spain       (CC module, Cholesky decomposition)
  Trond Saue,               Paul Sabatier University,     France      (direct Fock matrix construction)
  Stephan P. A. Sauer,      University of Copenhagen,     Denmark     (SOPPA(CCSD), SOPPA prop., AOSOPPA, vibrational g-factors)
  Bernd Schimmelpfennig,    Forschungszentrum Karlsruhe,  Germany     (AMFI module)
  Kristian Sneskov,         Aarhus University,            Denmark     (Polarizable embedding model, QM/MM)
  Arnfinn H. Steindal,      UiT The Arctic U. of Norway,  Norway      (parallel QM/MM, Polarizable embedding model)
  Casper Steinmann,         Univ. of Southern Denmark,    Denmark     (QFIT, Polarizable embedding model)
  K. O. Sylvester-Hvid,     University of Copenhagen,     Denmark     (MC-SCRF)
  Peter R. Taylor,          VLSCI/Univ. of Melbourne,     Australia   (Symmetry handling ABACUS, integral transformation)
  Andrew M. Teale,          University of Nottingham,     England     (DFT-AC, DFT-D)
  David P. Tew,             University of Bristol,        England     (CCSD(R12))
  Olav Vahtras,             KTH Stockholm,                Sweden      (triplet response, spin-orbit, ESR, TDDFT, open-shell DFT)
  David J. Wilson,          La Trobe University,          Australia   (DFT Hessian and DFT magnetizabilities)
  Hans Agren,               KTH Stockholm,                Sweden      (SIRIUS module, RESPONS, MC-SCRF solvation model)
 --------------------------------------------------------------------------------

     Date and time (Linux)  : Sat Nov 10 02:15:49 2018
     Host name              : Mechanist                               

 * Work memory size             :    64000000 =  488.28 megabytes.

 * Directories for basis set searches:
   1) /home/Main/dalton/build_gnu_builtin_2016
   2) /home/Main/dalton/build_gnu_builtin_2016/basis


Compilation information
-----------------------

 Who compiled             | Main
 Host                     | Mechanist
 System                   | Linux-4.4.0-17134-Microsoft
 CMake generator          | Unix Makefiles
 Processor                | x86_64
 64-bit integers          | OFF
 MPI                      | OFF
 Fortran compiler         | /home/Main/psi4conda/bin/gfortran
 Fortran compiler version | GNU Fortran (GCC) 5.2.0
 C compiler               | /home/Main/psi4conda/bin/gcc
 C compiler version       | gcc (GCC) 5.2.0
 C++ compiler             | /home/Main/psi4conda/bin/g++
 C++ compiler version     | g++ (GCC) 5.2.0
 Static linking           | OFF
 Last Git revision        | 130ffaa0613bb3af6cac766fc8183d6df7d68917
 Git branch               | release/2016
 Configuration time       | 2018-11-08 14:06:24.912435


   Content of the .dal input file
 ----------------------------------

**DALTON INPUT
.OPTIMIZE
**WAVE FUNCTIONS
.DFT
B3LYP
**END OF DALTON INPUT


   Content of the .mol file
 ----------------------------

BASIS
STO-3G
nitrobenzene
-----------
Atomtypes=4 Angstrom
Charge=6.0 Atoms=6
C_1         -5.51874        3.72297        0.42881
C_2         -4.08599        3.64936        0.15148
C_3         -3.36685        2.39165        0.24797
C_4         -4.09245        1.20301        0.64536
C_5         -5.51448        1.32010        0.92327
C_6         -6.19453        2.60930        0.79458
Charge=1.0 Atoms=5
H_1         -3.55509        4.54592       -0.14940
H_2         -2.31314        2.33917        0.00282
H_3         -3.59136        0.24593        0.71941
H_4         -6.06454        0.43834        1.23299
H_5         -5.98979        4.69580        0.32102
Charge=7.0 Atoms=1
N         -7.63145        2.72782        1.05606
Charge=8.0 Atoms=2
O_a         -8.15148        3.85210        1.00466
O_b         -8.24747        1.68391        1.31646


       *******************************************************************
       *********** Output from DALTON general input processing ***********
       *******************************************************************

 --------------------------------------------------------------------------------
   Overall default print level:    0
   Print level for DALTON.STAT:    1

    "Old" integral transformation used (limited to max 255 basis functions)
 --------------------------------------------------------------------------------


 Chosen parameters for *OPTIMI :
 -------------------------------

 Default 1st order method will be used:   BFGS update.
 Optimization will be performed in redundant internal coordinates (by default).
 Model Hessian will be used as initial Hessian.
 The model Hessian parameters of Roland Lindh will be used.


 Trust region method will be used to control step (default).

 Convergence threshold for gradient set to :      1.00D-04
 Convergence threshold for energy set to   :      1.00D-06
 Convergence threshold for step set to     :      1.00D-04
 Number of convergence criteria set to     :   2


              >>>>>>>>>>>>>>>>>>>>>>>>>>>>>>>>>>>>>>>>>>>>>>>>>>>>>
              >>>>>>>>>> 1st Order Geometry Optimization >>>>>>>>>>
              >>>>>>>>>>>>>>>>>>>>>>>>>>>>>>>>>>>>>>>>>>>>>>>>>>>>>


 Reading .mol file to determine number of atoms for parallel runs.


                      SYMADD: Requested addition of symmetry
                      --------------------------------------

 Symmetry test threshold:  5.00E-06

@   The molecule is centered at center of mass and rotated
@   so principal axes of inertia are along coordinate axes.

 Symmetry class found: C(1)           

 No symmetry elements were found.


   ****************************************************************************
   *************** Output of molecule and basis set information ***************
   ****************************************************************************


    The two title cards from your ".mol" input:
    ------------------------------------------------------------------------
 1: nitrobenzene                                                            
 2: -----------                                                             
    ------------------------------------------------------------------------

  Coordinates are entered in Angstrom and converted to atomic units.
          - Conversion factor : 1 bohr = 0.52917721 A

  Atomic type no.    1
  --------------------
  Nuclear charge:   6.00000
  Number of symmetry independent centers:    6
  Number of basis sets to read;    2
  Basis set file used for this atomic type with Z =   6 :
     "/home/Main/dalton/build_gnu_builtin_2016/basis/STO-3G"

  Atomic type no.    2
  --------------------
  Nuclear charge:   1.00000
  Number of symmetry independent centers:    5
  Number of basis sets to read;    2
  Basis set file used for this atomic type with Z =   1 :
     "/home/Main/dalton/build_gnu_builtin_2016/basis/STO-3G"

  Atomic type no.    3
  --------------------
  Nuclear charge:   7.00000
  Number of symmetry independent centers:    1
  Number of basis sets to read;    2
  Basis set file used for this atomic type with Z =   7 :
     "/home/Main/dalton/build_gnu_builtin_2016/basis/STO-3G"

  Atomic type no.    4
  --------------------
  Nuclear charge:   8.00000
  Number of symmetry independent centers:    2
  Number of basis sets to read;    2
  Basis set file used for this atomic type with Z =   8 :
     "/home/Main/dalton/build_gnu_builtin_2016/basis/STO-3G"


                      SYMADD: Requested addition of symmetry
                      --------------------------------------

 Symmetry test threshold:  5.00E-06

@   The molecule is centered at center of mass and rotated
@   so principal axes of inertia are along coordinate axes.

 Symmetry class found: C(1)           

 Symmetry Independent Centres             
 ----------------------------
       8 :     -0.10435797     2.12033709    -4.22325655  Isotope  1
       8 :      0.08887690    -2.01735950    -4.32302770  Isotope  1
       7 :     -0.00237341     0.02538444    -3.17940267  Isotope  1
       6 :      0.01078880    -0.00838741    -0.41058954  Isotope  1
       6 :     -0.03391611    -2.27727354     0.76748130  Isotope  1
       6 :      0.06416063     2.35005587     1.03190183  Isotope  1
       6 :     -0.03614108    -2.39947528     3.52604120  Isotope  1
       6 :      0.04236399     2.30932281     3.77852348  Isotope  1
       6 :     -0.01651466    -0.11531230     5.04627659  Isotope  1
       1 :     -0.07814032    -4.06546875    -0.23945432  Isotope  1
       1 :      0.13070317     4.15541577     0.06453654  Isotope  1
       1 :     -0.08867224    -4.22691872     4.45231847  Isotope  1
       1 :      0.04142824     4.05281763     4.84977155  Isotope  1
       1 :     -0.09268052    -0.22318083     7.08882020  Isotope  1

 No symmetry elements were found.


                         SYMGRP: Point group information
                         -------------------------------

@    Full point group is: C(1)           
@    Represented as:      C1 


                                 Isotopic Masses
                                 ---------------

                           C_1        12.000000
                           C_2        12.000000
                           C_3        12.000000
                           C_4        12.000000
                           C_5        12.000000
                           C_6        12.000000
                           H_1         1.007825
                           H_2         1.007825
                           H_3         1.007825
                           H_4         1.007825
                           H_5         1.007825
                           N          14.003074
                           O_a        15.994915
                           O_b        15.994915

                       Total mass:   123.032029 amu
                       Natural abundance:  92.716 %

 Center-of-mass coordinates (a.u.):    0.000000   -0.000000   -0.000000


  Atoms and basis sets
  --------------------

  Number of atom types :    4
  Total number of atoms:   14

  Basis set used is "STO-3G" from the basis set library.

  label    atoms   charge   prim   cont     basis
  ----------------------------------------------------------------------
  C_          6    6.0000    15     5      [6s3p|2s1p]                                        
  H_          5    1.0000     3     1      [3s|1s]                                            
  N           1    7.0000    15     5      [6s3p|2s1p]                                        
  O_          2    8.0000    15     5      [6s3p|2s1p]                                        
  ----------------------------------------------------------------------
  total:     14   64.0000   150    50
  ----------------------------------------------------------------------

  Threshold for neglecting AO integrals:  1.00D-12


   Interatomic separations (in Angstrom):
   --------------------------------------

            C_1         C_2         C_3         C_4         C_5         C_6   
            ------      ------      ------      ------      ------      ------
 C_1   :    0.000000
 C_2   :    1.461199    0.000000
 C_3   :    2.536877    1.452001    0.000000
 C_4   :    2.903687    2.495714    1.448199    0.000000
 C_5   :    2.453221    2.839313    2.493304    1.453655    0.000000
 C_6   :    1.353049    2.437467    2.888240    2.533507    1.463238    0.000000
 H_1   :    2.206240    1.084529    2.198685    3.477851    3.923741    3.407087
 H_2   :    3.517420    2.209456    1.083124    2.206731    3.483434    3.970522
 H_3   :    3.986107    3.485762    2.208342    1.082856    2.212191    3.516769
 H_4   :    3.425405    3.923643    3.473214    2.195260    1.084432    2.218596
 H_5   :    1.086234    2.179044    3.492028    3.988067    3.461788    2.149339
 N     :    2.418121    3.773299    4.353485    3.875338    2.545755    1.465318
 O_a   :    2.698073    4.158994    5.059464    4.860298    3.656695    2.327733
 O_b   :    3.520178    4.747430    5.046089    4.236252    2.784994    2.311551

            H_1         H_2         H_3         H_4         H_5         N     
            ------      ------      ------      ------      ------      ------
 H_1   :    0.000000
 H_2   :    2.536800    0.000000
 H_3   :    4.387033    2.555191    0.000000
 H_4   :    5.008049    4.381721    2.533260    0.000000
 H_5   :    2.484255    4.378665    5.070752    4.354681    0.000000
 N     :    4.623346    5.435511    4.753466    2.779969    2.666135    0.000000
 O_a   :    4.789576    6.113825    5.820698    4.007644    2.419111    1.239790
 O_b   :    5.688434    6.113206    4.909543    2.514676    3.893520    1.239773

            O_a         O_b   
            ------      ------
 O_a   :    0.000000
 O_b   :    2.192597    0.000000


  Max    interatomic separation is    6.1138 Angstrom (   11.5535 Bohr)
  between atoms   13 and    8, "O_a   " and "H_2   ".

  Min HX interatomic separation is    1.0829 Angstrom (    2.0463 Bohr)

  Min YX interatomic separation is    1.2398 Angstrom (    2.3428 Bohr)


  Bond distances (Angstrom):
  --------------------------

                  atom 1     atom 2       distance
                  ------     ------       --------
  bond distance:  C_2        C_1          1.461199
  bond distance:  C_3        C_2          1.452001
  bond distance:  C_4        C_3          1.448199
  bond distance:  C_5        C_4          1.453655
  bond distance:  C_6        C_1          1.353049
  bond distance:  C_6        C_5          1.463238
  bond distance:  H_1        C_2          1.084529
  bond distance:  H_2        C_3          1.083124
  bond distance:  H_3        C_4          1.082856
  bond distance:  H_4        C_5          1.084432
  bond distance:  H_5        C_1          1.086234
  bond distance:  N          C_6          1.465318
  bond distance:  O_a        N            1.239790
  bond distance:  O_b        N            1.239773


  Bond angles (degrees):
  ----------------------

                  atom 1     atom 2     atom 3         angle
                  ------     ------     ------         -----
  bond angle:     C_2        C_1        C_6          119.972
  bond angle:     C_2        C_1        H_5          116.840
  bond angle:     C_6        C_1        H_5          123.188
  bond angle:     C_1        C_2        C_3          121.108
  bond angle:     C_1        C_2        H_1          119.406
  bond angle:     C_3        C_2        H_1          119.476
  bond angle:     C_2        C_3        C_4          118.753
  bond angle:     C_2        C_3        H_2          120.581
  bond angle:     C_4        C_3        H_2          120.648
  bond angle:     C_3        C_4        C_5          118.456
  bond angle:     C_3        C_4        H_3          120.820
  bond angle:     C_5        C_4        H_3          120.717
  bond angle:     C_4        C_5        C_6          120.584
  bond angle:     C_4        C_5        H_4          119.032
  bond angle:     C_6        C_5        H_4          120.383
  bond angle:     C_1        C_6        C_5          121.120
  bond angle:     C_1        C_6        N            118.128
  bond angle:     C_5        C_6        N            120.752
  bond angle:     C_6        N          O_a          118.507
  bond angle:     C_6        N          O_b          117.170
  bond angle:     O_a        N          O_b          124.323




 Principal moments of inertia (u*A**2) and principal axes
 --------------------------------------------------------

   IA     131.020674          0.000000    0.000000    1.000000
   IB     411.239887          0.000000    1.000000   -0.000000
   IC     542.010001          1.000000    0.000000    0.000000


 Rotational constants
 --------------------

               A                   B                   C

           3857.2463           1228.9153            932.4164 MHz
            0.128664            0.040992            0.031102 cm-1


@  Nuclear repulsion energy :  404.600051874502 Hartree


                     .---------------------------------------.
                     | Starting in Integral Section (HERMIT) |
                     `---------------------------------------'



 ***************************************************************************************
 ****************** Output from **INTEGRALS input processing (HERMIT) ******************
 ***************************************************************************************


 - Using defaults, no **INTEGRALS input found

 Default print level:        1

 * Nuclear model: Point charge

 Calculation of one- and two-electron Hamiltonian integrals.

 Center of mass  (bohr):      0.000000000000     -0.000000000000     -0.000000000000
 Operator center (bohr):      0.000000000000      0.000000000000      0.000000000000
 Gauge origin    (bohr):      0.000000000000     -0.000000000000     -0.000000000000
 Dipole origin   (bohr):      0.000000000000     -0.000000000000     -0.000000000000


     ************************************************************************
     ************************** Output from HERINT **************************
     ************************************************************************


 Threshold for neglecting two-electron integrals:  1.00D-12
 HERMIT - Number of two-electron integrals written:      709822 ( 87.3% )
 HERMIT - Megabytes written:                              8.134

  Time used in TWOINT     is       0.83 seconds
  Total CPU  time used in HERMIT:   0.88 seconds
  Total wall time used in HERMIT:   0.93 seconds


                        .----------------------------------.
                        | End of Integral Section (HERMIT) |
                        `----------------------------------'



                   .--------------------------------------------.
                   | Starting in Wave Function Section (SIRIUS) |
                   `--------------------------------------------'


 *** Output from Huckel module :

     Using EWMO model:          T
     Using EHT  model:          F
     Number of Huckel orbitals each symmetry:   50

 EWMO - Energy Weighted Maximum Overlap - is a Huckel type method,
        which normally is better than Extended Huckel Theory.
 Reference: Linderberg and Ohrn, Propagators in Quantum Chemistry (Wiley, 1973)

 Huckel EWMO eigenvalues for symmetry :  1
          -20.684736     -20.683406     -15.676896     -11.360992     -11.353119
          -11.351438     -11.347174     -11.346892     -11.344256      -1.995055
           -1.809541      -1.512981      -1.372092      -1.347473      -1.025103
           -0.988486      -0.915267      -0.883384      -0.823830      -0.722844
           -0.683062      -0.668450      -0.618150      -0.586483      -0.570549
           -0.537193      -0.498846      -0.488618      -0.482427      -0.467816
           -0.418795      -0.414023      -0.348230      -0.260126      -0.243322
           -0.230189      -0.203657      -0.186833      -0.168009      -0.134801
           -0.132367      -0.130444      -0.126368      -0.118414      -0.110533
           -0.105656      -0.100681      -0.097623      -0.087441      -0.079125

 **********************************************************************
 *SIRIUS* a direct, restricted step, second order MCSCF program       *
 **********************************************************************

 
     Date and time (Linux)  : Sat Nov 10 02:15:50 2018
     Host name              : Mechanist                               

 Title lines from ".mol" input file:
     nitrobenzene                                                            
     -----------                                                             

 Print level on unit LUPRI =   2 is   0
 Print level on unit LUW4  =   2 is   5

@    Restricted, closed shell Kohn-Sham DFT calculation.

 Initial molecular orbitals are obtained according to
 ".MOSTART EWMO  " input option

     Wave function specification
     ============================
@    Wave function type        --- KS-DFT ---
@    Number of closed shell electrons          64
@    Number of electrons in active shells       0
@    Total charge of the molecule               0

@    Spin multiplicity and 2 M_S                1         0
@    Total number of symmetries                 1 (point group: C1 )
@    Reference state symmetry                   1 (irrep name : A  )
 
     This is a DFT calculation of type: B3LYP
 Weighted mixed functional:
               HF exchange:    0.20000
                       VWN:    0.19000
                       LYP:    0.81000
                     Becke:    0.72000
                    Slater:    0.80000

     Orbital specifications
     ======================
@    Abelian symmetry species          All |    1
@                                          |  A  
                                       --- |  ---
@    Occupied SCF orbitals              32 |   32
@    Secondary orbitals                 18 |   18
@    Total number of orbitals           50 |   50
@    Number of basis functions          50 |   50

     Optimization information
     ========================
@    Number of configurations                 1
@    Number of orbital rotations            576
     ------------------------------------------
@    Total number of variables              577

     Maximum number of Fock   iterations      0
     Maximum number of DIIS   iterations     60
     Maximum number of QC-SCF iterations     60
     Threshold for SCF convergence     1.00D-05
 
     This is a DFT calculation of type: B3LYP
 Weighted mixed functional:
               HF exchange:    0.20000
                       VWN:    0.19000
                       LYP:    0.81000
                     Becke:    0.72000
                    Slater:    0.80000


 ***********************************************
 ***** DIIS acceleration of SCF iterations *****
 ***********************************************

 C1-DIIS algorithm; max error vectors =    8

 Iter      Total energy        Error norm    Delta(E)  DIIS dim.
 -----------------------------------------------------------------------------
      K-S energy, electrons, error :    -47.088063241594  64.0000022912    2.29D-06
@  1    -429.943569662        3.27330D+00   -4.30D+02    1
      Virial theorem: -V/T =      2.011970
@      MULPOP C_1     0.21; C_2     0.14; C_3     0.20; C_4     0.16; C_5     0.16; C_6     0.39; H_1    -0.14; H_2    -0.14; H_3    -0.14; H_4    -0.14; 
@             H_5    -0.14; N       1.33; O_a    -0.94; O_b    -0.95; 
   1  Level shift: doubly occupied orbital energies shifted by -2.00D-01
 -----------------------------------------------------------------------------
      K-S energy, electrons, error :    -46.715469674825  64.0000013739    1.37D-06
@  2    -427.119363616        6.27062D+00    2.82D+00    2
      Virial theorem: -V/T =      2.008395
@      MULPOP C_1    -0.57; C_2    -0.22; C_3    -0.64; C_4    -0.19; C_5    -0.52; C_6    -1.34; H_1     0.17; H_2     0.17; H_3     0.17; H_4     0.21; 
@             H_5     0.23; N      -1.23; O_a     1.80; O_b     1.98; 
   2  Level shift: doubly occupied orbital energies shifted by -2.00D-01
 -----------------------------------------------------------------------------
      K-S energy, electrons, error :    -46.973493171318  64.0000024674    2.47D-06
@  3    -430.707943398        1.12224D+00   -3.59D+00    3
      Virial theorem: -V/T =      2.014532
@      MULPOP C_1    -0.12; C_2    -0.10; C_3     0.04; C_4    -0.15; C_5    -0.05; C_6     0.17; H_1     0.12; H_2     0.11; H_3     0.13; H_4     0.11; 
@             H_5     0.12; N      -0.44; O_a     0.09; O_b    -0.03; 
   3  Level shift: doubly occupied orbital energies shifted by -5.00D-02
 -----------------------------------------------------------------------------
      K-S energy, electrons, error :    -46.951606499698  64.0000026807    2.68D-06
@  4    -430.784135671        5.02597D-01   -7.62D-02    4
      Virial theorem: -V/T =      2.015887
@      MULPOP C_1    -0.11; C_2    -0.06; C_3    -0.22; C_4    -0.04; C_5    -0.10; C_6    -0.04; H_1     0.11; H_2     0.13; H_3     0.11; H_4     0.14; 
@             H_5     0.14; N       0.23; O_a    -0.28; O_b    -0.02; 
   4  Level shift: doubly occupied orbital energies shifted by -2.50D-02
 -----------------------------------------------------------------------------
      K-S energy, electrons, error :    -46.940211430768  64.0000025808    2.58D-06
@  5    -430.782468991        5.46585D-01    1.67D-03    5
      Virial theorem: -V/T =      2.016103
@      MULPOP C_1    -0.07; C_2    -0.08; C_3    -0.06; C_4    -0.09; C_5    -0.09; C_6     0.02; H_1     0.09; H_2     0.09; H_3     0.10; H_4     0.11; 
@             H_5     0.12; N       0.12; O_a     0.07; O_b    -0.32; 
   5  Level shift: doubly occupied orbital energies shifted by -2.50D-02
 -----------------------------------------------------------------------------
      K-S energy, electrons, error :    -46.940493997112  64.0000026442    2.64D-06
@  6    -430.805908171        6.81787D-02   -2.34D-02    6
      Virial theorem: -V/T =      2.016152
@      MULPOP C_1    -0.08; C_2    -0.08; C_3    -0.05; C_4    -0.09; C_5    -0.06; C_6     0.05; H_1     0.09; H_2     0.08; H_3     0.09; H_4     0.10; 
@             H_5     0.11; N       0.10; O_a    -0.13; O_b    -0.13; 
 -----------------------------------------------------------------------------
      K-S energy, electrons, error :    -46.945070116146  64.0000026272    2.63D-06
@  7    -430.806318249        3.75010D-02   -4.10D-04    7
      Virial theorem: -V/T =      2.016085
@      MULPOP C_1    -0.08; C_2    -0.06; C_3    -0.09; C_4    -0.06; C_5    -0.07; C_6     0.06; H_1     0.09; H_2     0.09; H_3     0.09; H_4     0.10; 
@             H_5     0.11; N       0.11; O_a    -0.14; O_b    -0.14; 
 -----------------------------------------------------------------------------
      K-S energy, electrons, error :    -46.946373765911  64.0000026312    2.63D-06
@  8    -430.806434312        1.21229D-02   -1.16D-04    8
      Virial theorem: -V/T =      2.016069
@      MULPOP C_1    -0.08; C_2    -0.07; C_3    -0.07; C_4    -0.07; C_5    -0.06; C_6     0.05; H_1     0.09; H_2     0.09; H_3     0.09; H_4     0.10; 
@             H_5     0.11; N       0.11; O_a    -0.15; O_b    -0.15; 
 -----------------------------------------------------------------------------
      K-S energy, electrons, error :    -46.946516361173  64.0000026309    2.63D-06
@  9    -430.806446788        4.74148D-03   -1.25D-05    8
      Virial theorem: -V/T =      2.016070
@      MULPOP C_1    -0.08; C_2    -0.07; C_3    -0.07; C_4    -0.07; C_5    -0.07; C_6     0.06; H_1     0.09; H_2     0.09; H_3     0.09; H_4     0.10; 
@             H_5     0.11; N       0.11; O_a    -0.15; O_b    -0.15; 
 -----------------------------------------------------------------------------
      K-S energy, electrons, error :    -46.946507707799  64.0000026300    2.63D-06
@ 10    -430.806448819        1.02833D-03   -2.03D-06    8
      Virial theorem: -V/T =      2.016071
@      MULPOP C_1    -0.08; C_2    -0.07; C_3    -0.07; C_4    -0.07; C_5    -0.07; C_6     0.06; H_1     0.09; H_2     0.09; H_3     0.09; H_4     0.10; 
@             H_5     0.11; N       0.11; O_a    -0.15; O_b    -0.15; 
 -----------------------------------------------------------------------------
      K-S energy, electrons, error :    -46.946516125070  64.0000026299    2.63D-06
@ 11    -430.806448903        4.45381D-04   -8.42D-08    8
      Virial theorem: -V/T =      2.016070
@      MULPOP C_1    -0.08; C_2    -0.07; C_3    -0.07; C_4    -0.07; C_5    -0.07; C_6     0.06; H_1     0.09; H_2     0.09; H_3     0.09; H_4     0.10; 
@             H_5     0.11; N       0.11; O_a    -0.15; O_b    -0.15; 
 -----------------------------------------------------------------------------
      K-S energy, electrons, error :    -46.946524420054  64.0000026300    2.63D-06
@ 12    -430.806448919        1.19373D-04   -1.62D-08    8
      Virial theorem: -V/T =      2.016070
@      MULPOP C_1    -0.08; C_2    -0.07; C_3    -0.07; C_4    -0.07; C_5    -0.07; C_6     0.06; H_1     0.09; H_2     0.09; H_3     0.09; H_4     0.10; 
@             H_5     0.11; N       0.11; O_a    -0.15; O_b    -0.15; 
 -----------------------------------------------------------------------------
      K-S energy, electrons, error :    -46.946519901327  64.0000026300    2.63D-06
@ 13    -430.806448921        2.66649D-05   -1.58D-09    8
      Virial theorem: -V/T =      2.016070
@      MULPOP C_1    -0.08; C_2    -0.07; C_3    -0.07; C_4    -0.07; C_5    -0.07; C_6     0.06; H_1     0.09; H_2     0.09; H_3     0.09; H_4     0.10; 
@             H_5     0.11; N       0.11; O_a    -0.15; O_b    -0.15; 
 -----------------------------------------------------------------------------
      K-S energy, electrons, error :    -46.946519853311  64.0000026300    2.63D-06
@ 14    -430.806448921        2.42659D-05   -8.40D-11    8
      Virial theorem: -V/T =      2.016070
@      MULPOP C_1    -0.08; C_2    -0.07; C_3    -0.07; C_4    -0.07; C_5    -0.07; C_6     0.06; H_1     0.09; H_2     0.09; H_3     0.09; H_4     0.10; 
@             H_5     0.11; N       0.11; O_a    -0.15; O_b    -0.15; 
 -----------------------------------------------------------------------------
      K-S energy, electrons, error :    -46.946519836544  64.0000026300    2.63D-06
@ 15    -430.806448921        5.44548D-06   -6.12D-11    8

@ *** DIIS converged in  15 iterations !
@     Converged SCF energy, gradient:   -430.806448920702    5.45D-06
    - total time used in SIRFCK :              0.00 seconds


 *** SCF orbital energy analysis ***

 Number of electrons :   64
 Orbital occupations :   32

 Sym       Kohn-Sham orbital energies

1 A     -18.87743685   -18.87607316   -14.39976546   -10.06873900   -10.03425093
        -10.03367062   -10.03052314   -10.02955266   -10.02718954    -1.14771419
         -0.96330315    -0.82201868    -0.74490715    -0.70828030    -0.63982092
         -0.58211335    -0.54010726    -0.48319212    -0.45004779    -0.44051919
         -0.42452700    -0.41871337    -0.38957784    -0.37058872    -0.33381018
         -0.32112405    -0.31737602    -0.21811673    -0.20024106    -0.15951031
         -0.15883663    -0.14401060     0.02408955     0.05577882     0.09950033
          0.21875188     0.26006507     0.35840475     0.36065991     0.39744020
          0.40726687     0.42161428     0.43763792     0.49361984     0.52461301
          0.54515617     0.55548311     0.58929729     0.69720650     0.75167934

    E(LUMO) :     0.02408955 au (symmetry 1)
  - E(HOMO) :    -0.14401060 au (symmetry 1)
  ------------------------------------------
    gap     :     0.16810015 au

 --- Writing SIRIFC interface file

 CPU and wall time for SCF :      35.266      36.541


                       .-----------------------------------.
                       | --- Final results from SIRIUS --- |
                       `-----------------------------------'


@    Spin multiplicity:           1
@    Spatial symmetry:            1 ( irrep  A   in C1  )
@    Total charge of molecule:    0

@    Final DFT energy:           -430.806448920702                 
@    Nuclear repulsion:           404.600051874502
@    Electronic energy:          -835.406500795204

@    Final gradient norm:           0.000005445479

 
     Date and time (Linux)  : Sat Nov 10 02:16:26 2018
     Host name              : Mechanist                               

File label for MO orbitals:  10Nov18   FOCKDIIS

 (Only coefficients > 0.0100 are printed.)

 Molecular orbitals for symmetry species 1  (A  )
 ------------------------------------------------

    Orbital         1        2        3        4        5        6        7
   1 C_1 :1s     0.0000  -0.0000  -0.0000   0.0063  -0.9882  -0.0250   0.0113
   2 C_1 :1s     0.0000   0.0000   0.0004   0.0107  -0.0447  -0.0014  -0.0002
   6 C_2 :1s     0.0000  -0.0000   0.0000   0.0004   0.0611   0.0073   0.0523
   7 C_2 :1s    -0.0001   0.0000  -0.0000  -0.0004   0.0110   0.0008   0.0064
  11 C_3 :1s    -0.0000   0.0000   0.0000   0.0006  -0.0040  -0.0088  -0.4676
  12 C_3 :1s     0.0000  -0.0000   0.0000   0.0001  -0.0010  -0.0018  -0.0281
  16 C_4 :1s     0.0000  -0.0000   0.0000   0.0001   0.0034   0.1250   0.8636
  17 C_4 :1s    -0.0000   0.0001   0.0000  -0.0004   0.0001   0.0138   0.0404
  21 C_5 :1s     0.0000  -0.0000  -0.0000   0.0118   0.0262  -0.9822   0.1155
  22 C_5 :1s    -0.0000  -0.0001   0.0002   0.0088   0.0008  -0.0432  -0.0025
  26 C_6 :1s     0.0000  -0.0000   0.0006  -0.9906  -0.0072  -0.0133   0.0015
  27 C_6 :1s     0.0002  -0.0002  -0.0063  -0.0434   0.0099   0.0081  -0.0007
  36 N   :1s     0.0006  -0.0005   0.9926  -0.0009  -0.0000   0.0000   0.0000
  37 N   :1s    -0.0070   0.0068   0.0350   0.0071  -0.0003  -0.0002   0.0000
  41 O_a :1s     0.9936   0.0146   0.0008  -0.0000  -0.0000  -0.0000   0.0000
  42 O_a :1s     0.0274   0.0002  -0.0066  -0.0001  -0.0000   0.0000  -0.0000
  46 O_b :1s     0.0146  -0.9936   0.0008  -0.0000  -0.0000  -0.0000   0.0000
  47 O_b :1s     0.0006  -0.0274  -0.0066  -0.0000   0.0001   0.0000  -0.0000

    Orbital         8        9       10       11       12       13       14
   1 C_1 :1s     0.0107  -0.0613  -0.0067   0.0072   0.1200  -0.0370  -0.1208
   2 C_1 :1s    -0.0011   0.0054   0.0153  -0.0160  -0.3024   0.0960   0.3283
   4 C_1 :2py    0.0000  -0.0003   0.0071  -0.0020  -0.0770   0.0487  -0.0249
   5 C_1 :2pz   -0.0010   0.0059  -0.0068   0.0088   0.0023  -0.0921   0.0640
   6 C_2 :1s     0.1604  -0.9743  -0.0006   0.0009   0.0820   0.0799  -0.1311
   7 C_2 :1s     0.0140  -0.0400   0.0016  -0.0026  -0.2111  -0.2146   0.3616
   9 C_2 :2py    0.0044   0.0004   0.0001  -0.0001  -0.0355  -0.0553  -0.0122
  10 C_2 :2pz    0.0029   0.0004  -0.0010   0.0015   0.0345  -0.0517  -0.0482
  11 C_3 :1s    -0.8571  -0.1680  -0.0002   0.0001   0.0718   0.1381  -0.0188
  12 C_3 :1s    -0.0344   0.0013   0.0005  -0.0002  -0.1848  -0.3721   0.0523
  14 C_3 :2py    0.0032  -0.0047  -0.0000   0.0004  -0.0007  -0.0187  -0.1138
  15 C_3 :2pz   -0.0001  -0.0033  -0.0003   0.0001   0.0439   0.0403  -0.0078
  16 C_4 :1s    -0.4683  -0.0296  -0.0005  -0.0006   0.0750   0.1159   0.1093
  17 C_4 :1s    -0.0124  -0.0000   0.0012   0.0017  -0.1931  -0.3117  -0.3019
  19 C_4 :2py   -0.0043  -0.0008  -0.0001   0.0001   0.0353   0.0570  -0.0286
  20 C_4 :2pz    0.0023   0.0005  -0.0008  -0.0011   0.0297  -0.0235   0.0654
  21 C_5 :1s    -0.0515  -0.0081  -0.0049  -0.0051   0.0953   0.0173   0.1334
  22 C_5 :1s     0.0015   0.0000   0.0119   0.0118  -0.2473  -0.0449  -0.3695
  24 C_5 :2py    0.0000  -0.0002  -0.0052  -0.0009   0.0581  -0.0319  -0.0108
  25 C_5 :2pz    0.0027   0.0003  -0.0055  -0.0069  -0.0026  -0.0960  -0.0357
  26 C_6 :1s    -0.0012  -0.0011  -0.0318   0.0007   0.1467  -0.1115   0.0232
  27 C_6 :1s     0.0003   0.0004   0.0635  -0.0015  -0.3769   0.2997  -0.0677
  29 C_6 :2py    0.0003  -0.0003  -0.0011   0.0225   0.0303  -0.0393  -0.1466
  30 C_6 :2pz    0.0002   0.0001  -0.0384  -0.0007  -0.0329  -0.0823   0.0276
  31 H_1 :1s    -0.0016   0.0090   0.0001  -0.0003  -0.0378  -0.0512   0.1024
  32 H_2 :1s     0.0079   0.0014   0.0000  -0.0000  -0.0332  -0.0903   0.0148
  33 H_3 :1s     0.0042   0.0003   0.0001   0.0002  -0.0348  -0.0754  -0.0863
  34 H_4 :1s     0.0005   0.0002   0.0029   0.0067  -0.0440  -0.0080  -0.1041
  35 H_5 :1s     0.0000   0.0004   0.0037  -0.0084  -0.0549   0.0263   0.0925
  36 N   :1s    -0.0000  -0.0000  -0.1815  -0.0005   0.0181  -0.0436   0.0146
  37 N   :1s     0.0000   0.0001   0.5561   0.0017  -0.0669   0.1633  -0.0560
  38 N   :2px    0.0000  -0.0000  -0.0004  -0.0167  -0.0004   0.0005  -0.0034
  39 N   :2py    0.0000  -0.0001   0.0016   0.3618   0.0002  -0.0029   0.0096
  40 N   :2pz    0.0000   0.0000  -0.0796   0.0081  -0.1712   0.2454  -0.0699
  41 O_a :1s     0.0000  -0.0000  -0.1130   0.1542  -0.0354   0.0476  -0.0027
  42 O_a :1s     0.0000   0.0000   0.3594  -0.5327   0.1313  -0.1843   0.0107
  44 O_a :2py    0.0000  -0.0000   0.1226  -0.1121   0.0315  -0.0324  -0.0018
  45 O_a :2pz   -0.0000   0.0000   0.0672  -0.0841  -0.0106   0.0281  -0.0061
  46 O_b :1s    -0.0000  -0.0000  -0.1125  -0.1547  -0.0312   0.0425  -0.0230
  47 O_b :1s     0.0000   0.0000   0.3575   0.5341   0.1155  -0.1647   0.0908
  49 O_b :2py    0.0000  -0.0000  -0.1254  -0.1170  -0.0277   0.0270  -0.0148
  50 O_b :2pz    0.0000   0.0000   0.0608   0.0785  -0.0125   0.0284  -0.0141

    Orbital        15       16       17       18       19       20       21
   1 C_1 :1s     0.0898  -0.0902   0.0207  -0.0344   0.0031  -0.0501   0.0121
   2 C_1 :1s    -0.2525   0.2593  -0.0729   0.1184  -0.0113   0.1702  -0.0566
   3 C_1 :2px   -0.0005  -0.0004   0.0053  -0.0040  -0.0851  -0.0033   0.0102
   4 C_1 :2py   -0.0124   0.0219   0.2362  -0.1709   0.0122  -0.1258   0.3066
   5 C_1 :2pz   -0.0258  -0.1516  -0.0838  -0.1814  -0.0132  -0.0206  -0.1030
   6 C_2 :1s    -0.0109   0.1096   0.0681   0.0382  -0.0012   0.0448  -0.0165
   7 C_2 :1s     0.0336  -0.3273  -0.2134  -0.1207   0.0041  -0.1524   0.0587
   8 C_2 :2px   -0.0001   0.0019   0.0035  -0.0037  -0.0269   0.0015  -0.0028
   9 C_2 :2py    0.0506   0.0351   0.1877  -0.1007   0.0035   0.0878  -0.1013
  10 C_2 :2pz    0.1358  -0.1045   0.0632   0.0866   0.0181  -0.0836   0.1851
  11 C_3 :1s    -0.1204  -0.0079  -0.0827  -0.0480  -0.0000  -0.0427   0.0288
  12 C_3 :1s     0.3471   0.0234   0.2527   0.1606   0.0001   0.1457  -0.0962
  13 C_3 :2px   -0.0021   0.0030  -0.0024  -0.0082  -0.0151  -0.0037  -0.0076
  14 C_3 :2py   -0.0063   0.2052  -0.0152  -0.0198  -0.0168   0.0098  -0.1712
  15 C_3 :2pz    0.0462   0.0189   0.0443   0.2913  -0.0008   0.1066   0.2042
  16 C_4 :1s    -0.0028  -0.1026   0.0771   0.0392   0.0015   0.0417   0.0020
  17 C_4 :1s     0.0098   0.3064  -0.2408  -0.1232  -0.0052  -0.1425  -0.0033
  18 C_4 :2px   -0.0027  -0.0022  -0.0031  -0.0000  -0.0226   0.0002   0.0043
  19 C_4 :2py   -0.0665   0.0124  -0.1868   0.0926   0.0046  -0.1013   0.3083
  20 C_4 :2pz    0.1312   0.1302   0.0258   0.0846  -0.0189  -0.0783   0.0111
  21 C_5 :1s     0.0956   0.0999   0.0055  -0.0387  -0.0036  -0.0477   0.0058
  22 C_5 :1s    -0.2744  -0.2987  -0.0189   0.1321   0.0123   0.1616  -0.0193
  23 C_5 :2px   -0.0004  -0.0023  -0.0037   0.0059  -0.0666   0.0057   0.0041
  24 C_5 :2py   -0.0006  -0.0114  -0.1852   0.1803   0.0118   0.1071   0.0532
  25 C_5 :2pz   -0.0219   0.1361  -0.1104  -0.1682   0.0132  -0.0210   0.0424
  26 C_6 :1s    -0.0040  -0.0015  -0.0822  -0.0004   0.0005   0.0505  -0.0474
  27 C_6 :1s     0.0140  -0.0032   0.2456   0.0032  -0.0024  -0.1719   0.1505
  28 C_6 :2px   -0.0008  -0.0073   0.0011   0.0004  -0.2227   0.0019   0.0060
  29 C_6 :2py    0.0113  -0.2514  -0.0002  -0.0012  -0.0142  -0.0053  -0.2195
  30 C_6 :2pz   -0.2436   0.0125   0.2018  -0.0678   0.0008   0.0694   0.1481
  31 H_1 :1s     0.0177  -0.1611  -0.1633   0.0339   0.0061  -0.1583   0.1645
  32 H_2 :1s     0.1369   0.0126   0.1278   0.2661   0.0004   0.1492   0.1238
  33 H_3 :1s     0.0079   0.1545  -0.1793   0.0277  -0.0069  -0.1644   0.2125
  34 H_4 :1s    -0.0874  -0.1449  -0.0689   0.2190   0.0055   0.1353   0.0057
  35 H_5 :1s    -0.0762   0.1216  -0.1174   0.2130  -0.0054   0.1461  -0.2068
  36 N   :1s    -0.0853   0.0091   0.0589   0.0573  -0.0005  -0.0702  -0.0106
  37 N   :1s     0.3369  -0.0377  -0.2449  -0.2496   0.0023   0.3091   0.0470
  38 N   :2px    0.0016  -0.0103   0.0004  -0.0001  -0.7240   0.0013   0.0254
  39 N   :2py   -0.0071  -0.0129   0.0031  -0.0036  -0.0358   0.0008  -0.1124
  40 N   :2pz    0.2962  -0.0256  -0.1171   0.0909   0.0005  -0.3196  -0.2144
  41 O_a :1s     0.0616   0.0114  -0.0439  -0.0537   0.0012   0.0955   0.0574
  42 O_a :1s    -0.2539  -0.0477   0.1905   0.2440  -0.0054  -0.4398  -0.2699
  43 O_a :2px    0.0007  -0.0030   0.0017   0.0045  -0.3011  -0.0119   0.0022
  44 O_a :2py   -0.0039  -0.0122  -0.0273  -0.1319  -0.0114   0.2629   0.1800
  45 O_a :2pz    0.0578   0.0131  -0.0537  -0.0085   0.0021   0.0204   0.0257
  46 O_b :1s     0.0630  -0.0240  -0.0419  -0.0558   0.0001   0.0915   0.0024
  47 O_b :1s    -0.2597   0.1013   0.1821   0.2532  -0.0007  -0.4211  -0.0115
  48 O_b :2px   -0.0001  -0.0034  -0.0015  -0.0051  -0.2999   0.0138   0.0120
  49 O_b :2py    0.0017  -0.0074   0.0329   0.1306  -0.0150  -0.2584  -0.0684
  50 O_b :2pz    0.0583  -0.0280  -0.0480  -0.0067   0.0002  -0.0017  -0.1058

    Orbital        22       23       24       25       26       27       28
   1 C_1 :1s     0.0033  -0.0246  -0.0118   0.0146   0.0079   0.0003   0.0006
   2 C_1 :1s    -0.0168   0.0854   0.0391  -0.0536  -0.0121   0.0012  -0.0025
   3 C_1 :2px    0.0075   0.0032  -0.0028   0.0180  -0.0544   0.3571   0.4269
   4 C_1 :2py    0.0435   0.1641   0.0503  -0.0178  -0.2574  -0.0436  -0.0085
   5 C_1 :2pz   -0.1763   0.2516  -0.1347  -0.3213  -0.0393   0.0157  -0.0041
   6 C_2 :1s    -0.0024  -0.0264   0.0021  -0.0022  -0.0061  -0.0011  -0.0004
   7 C_2 :1s     0.0068   0.0895  -0.0092   0.0110   0.0172   0.0036   0.0014
   8 C_2 :2px    0.0068   0.0072  -0.0003   0.0197  -0.0383   0.3220  -0.0480
   9 C_2 :2py    0.2107   0.2885   0.1377   0.0040   0.2962   0.0329   0.0018
  10 C_2 :2pz    0.1537  -0.2374   0.1346   0.3066   0.0956  -0.0049   0.0017
  11 C_3 :1s    -0.0211  -0.0100  -0.0019  -0.0164  -0.0018   0.0004   0.0006
  12 C_3 :1s     0.0706   0.0351   0.0067   0.0532   0.0065  -0.0007  -0.0030
  13 C_3 :2px    0.0040   0.0010  -0.0048   0.0347  -0.0472   0.3081  -0.4636
  14 C_3 :2py   -0.1946  -0.0472  -0.2128   0.0616  -0.3465  -0.0584   0.0094
  15 C_3 :2pz   -0.1811  -0.0737  -0.0136  -0.3477  -0.0511   0.0260  -0.0164
  16 C_4 :1s     0.0067   0.0250  -0.0007  -0.0055   0.0096   0.0014   0.0003
  17 C_4 :1s    -0.0260  -0.0858   0.0036   0.0226  -0.0294  -0.0042  -0.0015
  18 C_4 :2px    0.0073   0.0004   0.0020   0.0169  -0.0410   0.3080  -0.4748
  19 C_4 :2py   -0.0616   0.1594   0.1378  -0.1134   0.2902   0.0454   0.0037
  20 C_4 :2pz   -0.2746   0.2248  -0.1349   0.3071   0.0034  -0.0152  -0.0035
  21 C_5 :1s    -0.0169   0.0243   0.0083   0.0145  -0.0051  -0.0018  -0.0001
  22 C_5 :1s     0.0595  -0.0829  -0.0306  -0.0485   0.0145   0.0058   0.0005
  23 C_5 :2px    0.0117   0.0091  -0.0025   0.0244  -0.0536   0.3119  -0.0679
  24 C_5 :2py    0.2326   0.2786   0.0598   0.0627  -0.2650  -0.0524   0.0030
  25 C_5 :2pz    0.2215  -0.2309   0.1410  -0.3126  -0.0554   0.0144  -0.0037
  26 C_6 :1s     0.0413   0.0176   0.0024  -0.0272  -0.0073   0.0002   0.0004
  27 C_6 :1s    -0.1478  -0.0652  -0.0141   0.0911   0.0364   0.0011  -0.0019
  28 C_6 :2px    0.0093  -0.0040  -0.0084   0.0194  -0.0403   0.3422   0.4319
  29 C_6 :2py   -0.2754  -0.0492  -0.1042  -0.0226   0.2981   0.0380  -0.0107
  30 C_6 :2pz   -0.1249  -0.0466  -0.0073   0.0491   0.0258   0.0008  -0.0010
  31 H_1 :1s    -0.0924  -0.2768  -0.0629   0.1451  -0.2284  -0.0412   0.0021
  32 H_2 :1s    -0.1041  -0.0454   0.0018  -0.3421  -0.0296   0.0206  -0.0033
  33 H_3 :1s    -0.1715   0.1812   0.0463   0.0798   0.2581   0.0324   0.0009
  34 H_4 :1s     0.1193   0.2695  -0.0400   0.1705  -0.2133  -0.0439   0.0023
  35 H_5 :1s     0.0299  -0.1877   0.0522   0.1360   0.2459   0.0262   0.0011
  36 N   :1s     0.0049  -0.0018  -0.0002   0.0120   0.0021  -0.0006  -0.0000
  37 N   :1s    -0.0224   0.0086   0.0002  -0.0591  -0.0100   0.0031   0.0001
  38 N   :2px    0.0379  -0.0109  -0.0027  -0.0130   0.0259  -0.1804  -0.0881
  39 N   :2py   -0.1886   0.0086   0.4550   0.0250  -0.1203  -0.0168   0.0003
  40 N   :2pz    0.1330   0.0589   0.0006  -0.1948  -0.0354   0.0082  -0.0006
  41 O_a :1s     0.0268  -0.0112  -0.0833   0.0117   0.0238   0.0012  -0.0002
  42 O_a :1s    -0.1251   0.0517   0.4022  -0.0556  -0.1160  -0.0058   0.0010
  43 O_a :2px    0.0134  -0.0035   0.0212  -0.0131   0.0076  -0.1264  -0.1128
  44 O_a :2py   -0.0028  -0.0174  -0.2691   0.0718   0.0997  -0.0059  -0.0171
  45 O_a :2pz    0.1392  -0.0120  -0.2492  -0.0553   0.0787   0.0113   0.0067
  46 O_b :1s    -0.0629   0.0014   0.0859   0.0184  -0.0184  -0.0022   0.0006
  47 O_b :1s     0.2952  -0.0047  -0.4148  -0.0883   0.0904   0.0104  -0.0028
  48 O_b :2px    0.0057  -0.0056   0.0242  -0.0002   0.0091  -0.1276  -0.1385
  49 O_b :2py    0.1612   0.0390  -0.2911  -0.1017   0.0754   0.0010  -0.0181
  50 O_b :2pz   -0.0779   0.0449   0.2319  -0.0378  -0.0850  -0.0053   0.0003

    Orbital        29       30       31       32       33       34       35
   1 C_1 :1s    -0.0008  -0.0045  -0.0016   0.0137   0.0012  -0.0005  -0.0002
   2 C_1 :1s     0.0031   0.0149   0.0056  -0.0594  -0.0055   0.0026   0.0011
   3 C_1 :2px    0.2612   0.0011  -0.0124  -0.0081   0.2636   0.5477   0.1751
   4 C_1 :2py   -0.0041   0.0754   0.0175   0.0001  -0.0109  -0.0131   0.0027
   5 C_1 :2pz   -0.0019  -0.0350  -0.0108   0.0408  -0.0019   0.0000  -0.0056
   7 C_2 :1s     0.0021  -0.0307  -0.0095   0.0320   0.0041  -0.0051   0.0032
   8 C_2 :2px    0.5371   0.0033  -0.0367   0.0056   0.2456  -0.5535   0.3025
   9 C_2 :2py   -0.0119  -0.0060  -0.0006   0.0044  -0.0036   0.0107  -0.0038
  10 C_2 :2pz    0.0034   0.0526   0.0156  -0.0386   0.0012  -0.0038   0.0034
  12 C_3 :1s     0.0038  -0.0175  -0.0036  -0.0008  -0.0069   0.0027  -0.0100
  13 C_3 :2px    0.2763   0.0026  -0.0066   0.0109  -0.4371   0.0005  -0.5514
  14 C_3 :2py   -0.0028   0.0014   0.0003   0.0136   0.0062  -0.0022   0.0109
  15 C_3 :2pz    0.0081   0.0042  -0.0002   0.0024  -0.0126  -0.0010  -0.0166
  17 C_4 :1s    -0.0033  -0.0279  -0.0083  -0.0249  -0.0004   0.0055   0.0062
  18 C_4 :2px   -0.2686  -0.0031   0.0322  -0.0002   0.0721   0.5592   0.4109
  20 C_4 :2pz   -0.0037   0.0504   0.0157   0.0280   0.0029   0.0072   0.0043
  21 C_5 :1s    -0.0006  -0.0070  -0.0023  -0.0117  -0.0003  -0.0002   0.0018
  22 C_5 :1s     0.0024   0.0281   0.0096   0.0522   0.0011   0.0010  -0.0088
  23 C_5 :2px   -0.5371  -0.0042   0.0231  -0.0092   0.3786  -0.5459   0.0209
  24 C_5 :2py    0.0164  -0.0684  -0.0168   0.0049  -0.0171   0.0165   0.0060
  25 C_5 :2pz   -0.0029  -0.0415  -0.0127  -0.0320  -0.0003  -0.0065  -0.0000
  26 C_6 :1s     0.0006   0.0476   0.0126  -0.0033   0.0003  -0.0007  -0.0006
  27 C_6 :1s    -0.0027  -0.2188  -0.0574   0.0157  -0.0012   0.0037   0.0027
  28 C_6 :2px   -0.2497  -0.0013   0.0012  -0.0093  -0.3839  -0.0148  -0.4462
  29 C_6 :2py    0.0030  -0.0127  -0.0033   0.0077   0.0068   0.0019   0.0143
  30 C_6 :2pz    0.0029   0.3042   0.0816  -0.0225   0.0021  -0.0029   0.0011
  31 H_1 :1s    -0.0005   0.0380   0.0101  -0.0109  -0.0009   0.0015   0.0022
  33 H_3 :1s    -0.0025   0.0331   0.0090   0.0067   0.0042  -0.0046  -0.0024
  34 H_4 :1s     0.0017   0.0289   0.0079  -0.0023   0.0026  -0.0032   0.0010
  35 H_5 :1s    -0.0007   0.0386   0.0109  -0.0062   0.0013  -0.0027   0.0032
  37 N   :1s    -0.0005   0.0239   0.0053   0.0052   0.0014  -0.0035  -0.0026
  38 N   :2px    0.0403   0.0006  -0.0027   0.0001  -0.4066  -0.1252   0.5267
  39 N   :2py    0.0000   0.0043   0.0011   0.0102  -0.0183  -0.0057   0.0271
  40 N   :2pz   -0.0024  -0.0454  -0.0134   0.0108   0.0030  -0.0023  -0.0040
  42 O_a :1s    -0.0019  -0.0209  -0.0054   0.0108   0.0008  -0.0001   0.0018
  43 O_a :2px    0.1072  -0.1728   0.6877   0.0252   0.4660   0.1032  -0.3902
  44 O_a :2py    0.0127  -0.1789  -0.0149  -0.4820   0.0231   0.0064  -0.0151
  45 O_a :2pz    0.0016   0.6664   0.1778   0.4594   0.0013  -0.0002   0.0080
  47 O_b :1s    -0.0006  -0.0227  -0.0059  -0.0084  -0.0010  -0.0005  -0.0019
  48 O_b :2px    0.0349   0.1846  -0.6827   0.0238   0.4700   0.1296  -0.3872
  49 O_b :2py    0.0093   0.0665  -0.0179  -0.4735   0.0237   0.0044  -0.0160
  50 O_b :2pz    0.0102   0.5926   0.1607  -0.5945  -0.0073  -0.0024  -0.0040

    Orbital        36       37       38       39       40       41       42
   1 C_1 :1s     0.0021   0.0043   0.0360   0.0590  -0.0913  -0.0358   0.1432
   2 C_1 :1s    -0.0105   0.0018  -0.2179  -0.3531   0.5547   0.2077  -0.8964
   3 C_1 :2px   -0.5552   0.0085   0.0034   0.0051  -0.0139  -0.0061  -0.0001
   4 C_1 :2py    0.0081  -0.1683   0.2882   0.0348  -0.3678  -0.0680  -0.1024
   5 C_1 :2pz   -0.0095  -0.1976   0.3384  -0.2424   0.2420   0.0624   0.1517
   6 C_2 :1s    -0.0038  -0.0455   0.0810  -0.0022   0.1107   0.1267  -0.0806
   7 C_2 :1s     0.0208   0.2587  -0.4981  -0.0034  -0.6559  -0.7634   0.4985
   8 C_2 :2px    0.4706  -0.0134   0.0081  -0.0023  -0.0004   0.0116  -0.0063
   9 C_2 :2py   -0.0078  -0.0959   0.2491   0.1905  -0.4800  -0.0474  -0.2364
  10 C_2 :2pz   -0.0047  -0.1760  -0.0138  -0.4198   0.1454  -0.2740  -0.0700
  11 C_3 :1s     0.0027  -0.0116  -0.0071   0.0673  -0.0552  -0.1871  -0.0486
  12 C_3 :1s    -0.0150   0.0709   0.0371  -0.4246   0.3321   1.1268   0.3081
  13 C_3 :2px   -0.4401   0.0132   0.0079   0.0271  -0.0169  -0.0091  -0.0072
  14 C_3 :2py    0.0117   0.0089   0.0758   0.0297  -0.5688   0.1393   0.1737
  15 C_3 :2pz   -0.0156  -0.0143  -0.1788  -0.5183  -0.0544  -0.1624   0.2036
  16 C_4 :1s    -0.0023  -0.0429  -0.0437   0.0636  -0.0396   0.1590   0.0955
  17 C_4 :1s     0.0130   0.2440   0.2529  -0.4020   0.2276  -0.9563  -0.5933
  18 C_4 :2px    0.4439  -0.0137   0.0019  -0.0023   0.0035   0.0147   0.0047
  19 C_4 :2py   -0.0032   0.1149   0.2127  -0.3392  -0.3294   0.2365  -0.0477
  20 C_4 :2pz    0.0014  -0.1643  -0.2667  -0.3227  -0.2837  -0.1868   0.1265
  21 C_5 :1s    -0.0004   0.0170   0.1532   0.0082   0.1166  -0.0817   0.0251
  22 C_5 :1s     0.0028  -0.0777  -0.9050  -0.0571  -0.7204   0.4926  -0.1637
  23 C_5 :2px   -0.4862   0.0264   0.0078  -0.0086  -0.0145   0.0050  -0.0112
  24 C_5 :2py    0.0160   0.1995   0.3850  -0.3220  -0.2761   0.2336  -0.1115
  25 C_5 :2pz   -0.0145  -0.1423   0.1326  -0.1042  -0.0045   0.0889   0.5983
  26 C_6 :1s    -0.0029  -0.1206  -0.1032   0.0150  -0.0290   0.0094  -0.1032
  27 C_6 :1s     0.0155   0.6645   0.5991  -0.0976   0.1868  -0.0440   0.6412
  28 C_6 :2px    0.5997  -0.0180   0.0180  -0.0089   0.0066   0.0020  -0.0046
  29 C_6 :2py   -0.0140   0.0754   0.4762  -0.1912   0.0360  -0.0063  -0.2051
  30 C_6 :2pz   -0.0206  -0.6873   0.1626  -0.2150   0.0583  -0.0174   0.1775
  31 H_1 :1s    -0.0070  -0.1801   0.5090   0.3576  -0.1293   0.5069  -0.4366
  32 H_2 :1s     0.0146  -0.0049   0.1660   0.7691  -0.1594  -0.4533  -0.3393
  33 H_3 :1s    -0.0081  -0.1818  -0.2129   0.6882   0.2981   0.4295   0.2705
  34 H_4 :1s    -0.0115  -0.2695   0.2303   0.2608   0.6275  -0.4434   0.4483
  35 H_5 :1s    -0.0045  -0.3225   0.5609   0.0920  -0.5062  -0.1602   0.4562
  36 N   :1s     0.0038   0.1460   0.0229   0.0255   0.0081   0.0074   0.0611
  37 N   :1s    -0.0230  -0.9089  -0.1439  -0.1631  -0.0515  -0.0476  -0.3905
  38 N   :2px   -0.2451   0.0009  -0.0219   0.0087  -0.0037   0.0000   0.0111
  39 N   :2py   -0.0183   0.0287   0.2161  -0.0862   0.0291  -0.0045  -0.1503
  40 N   :2pz   -0.0141  -0.4875  -0.0568  -0.0373   0.0033   0.0510   0.1549
  41 O_a :1s     0.0001  -0.0251  -0.0186   0.0020  -0.0077  -0.0048  -0.0117
  42 O_a :1s    -0.0010   0.1511   0.1209  -0.0119   0.0449   0.0294   0.0753
  43 O_a :2px    0.1214  -0.0119  -0.0020  -0.0017  -0.0022  -0.0021  -0.0083
  44 O_a :2py    0.0043   0.2099   0.1686   0.0131   0.0191   0.0363   0.1691
  45 O_a :2pz   -0.0001   0.2839   0.1622  -0.0285   0.0534   0.0132  -0.0057
  46 O_b :1s    -0.0011  -0.0214   0.0126  -0.0108   0.0021  -0.0063  -0.0332
  47 O_b :1s     0.0070   0.1288  -0.0812   0.0710  -0.0105   0.0376   0.2143
  48 O_b :2px    0.1181   0.0095  -0.0005   0.0029  -0.0001   0.0033   0.0142
  49 O_b :2py   -0.0050  -0.2031   0.0846  -0.1160  -0.0245  -0.0336  -0.3192
  50 O_b :2pz    0.0138   0.2367  -0.0968   0.0738  -0.0239   0.0229   0.1427

  Total CPU  time used in SIRIUS :  35.28 seconds
  Total wall time used in SIRIUS :  36.56 seconds

 
     Date and time (Linux)  : Sat Nov 10 02:16:26 2018
     Host name              : Mechanist                               


                     .---------------------------------------.
                     | End of Wave Function Section (SIRIUS) |
                     `---------------------------------------'


 Center of mass dipole origin  :    0.000000   -0.000000   -0.000000

 Center of mass gauge origin   :    0.000000   -0.000000   -0.000000


                 .------------------------------------------------.
                 | Starting in Static Property Section (ABACUS) - |
                 `------------------------------------------------'


 
     Date and time (Linux)  : Sat Nov 10 02:16:26 2018
     Host name              : Mechanist                               


   ***************************************************************************
   ************************ FINAL RESULTS from ABACUS ************************
   ***************************************************************************


 
     Date and time (Linux)  : Sat Nov 10 02:16:43 2018
     Host name              : Mechanist                               


                             Molecular geometry (au)
                             -----------------------

 C_1       -0.0339161109           -2.2772735396            0.7674812970
 C_2       -0.0361410763           -2.3994752751            3.5260412000
 C_3       -0.0165146621           -0.1153122994            5.0462765923
 C_4        0.0423639911            2.3093228121            3.7785234846
 C_5        0.0641606261            2.3500558695            1.0319018305
 C_6        0.0107888041           -0.0083874144           -0.4105895383
 H_1       -0.0886722387           -4.2269187204            4.4523184736
 H_2       -0.0926805150           -0.2231808325            7.0888202033
 H_3        0.0414282391            4.0528176297            4.8497715498
 H_4        0.1307031726            4.1554157691            0.0645365409
 H_5       -0.0781403248           -4.0654687475           -0.2394543247
 N         -0.0023734148            0.0253844384           -3.1794026697
 O_a        0.0888768968           -2.0173594967           -4.3230276978
 O_b       -0.1043579724            2.1203370862           -4.2232565506





                        Molecular wave function and energy
                        ----------------------------------

     Spatial symmetry   1 ( A   )
     Spin multiplicity  1
     2 * M_S            0
     State number       1
     Total charge       0

     Total energy       -430.8064489207 au (Hartrees)
                        -11722.83980171 eV
                          -1131082.1573 kJ/mol
                           -270335.1236 kcal/mol


                   Scalar Breit-Pauli relativistic corrections
                   -------------------------------------------

     Darwin correction:                          0.5661780635 au
     Mass-velocity correction:                  -0.7227754997 au

     Total relativistic correction:             -0.1565974362 au ( 0.0363%)
     Non-relativistic + relativistic energy:  -430.9630463569 au



      (Note that these corrections are NOT included in the results below.)


                             Molecular gradient (au)
                             -----------------------

 C_1        0.0004229075            0.0413026942           -0.0793777595
 C_2        0.0005029486           -0.0478202514            0.0113828173
 C_3        0.0006688983            0.0094661303            0.0566446367
 C_4        0.0012196741            0.0454904615            0.0435116436
 C_5        0.0005149504            0.0303727998           -0.0339135987
 C_6       -0.0022599699           -0.0653052568           -0.0652200722
 H_1        0.0001810717            0.0112829973           -0.0047702494
 H_2       -0.0009754871            0.0013283393           -0.0134847590
 H_3       -0.0007130275           -0.0121495979           -0.0057413923
 H_4        0.0005044844           -0.0092015445            0.0107119365
 H_5       -0.0001050660            0.0055709885            0.0122171220
 N         -0.0007749180           -0.0064773345           -0.0490264022
 O_a       -0.0052360623            0.1231009676            0.0593096108
 O_b        0.0060527288           -0.1269477958            0.0577108137





                                  Dipole moment
                                  -------------

                 au               Debye          C m (/(10**-30)
              1.281535           3.257336          10.865305


                             Dipole moment components
                             ------------------------

                 au               Debye          C m (/(10**-30)

      x     -0.00544534        -0.01384068        -0.04616755
      y     -0.01801987        -0.04580194        -0.15277884
      z      1.28139657         3.25698500        10.86413255


   Units:   1 a.u. =   2.54175 Debye 
            1 a.u. =   8.47835 (10**-30) C m (SI)




   Interatomic separations (in Angstrom):
   --------------------------------------

            C_1         C_2         C_3         C_4         C_5         C_6   
            ------      ------      ------      ------      ------      ------
 C_1   :    0.000000
 C_2   :    1.461199    0.000000
 C_3   :    2.536877    1.452001    0.000000
 C_4   :    2.903687    2.495714    1.448199    0.000000
 C_5   :    2.453221    2.839313    2.493304    1.453655    0.000000
 C_6   :    1.353049    2.437467    2.888240    2.533507    1.463238    0.000000
 H_1   :    2.206240    1.084529    2.198685    3.477851    3.923741    3.407087
 H_2   :    3.517420    2.209456    1.083124    2.206731    3.483434    3.970522
 H_3   :    3.986107    3.485762    2.208342    1.082856    2.212191    3.516769
 H_4   :    3.425405    3.923643    3.473214    2.195260    1.084432    2.218596
 H_5   :    1.086234    2.179044    3.492028    3.988067    3.461788    2.149339
 N     :    2.418121    3.773299    4.353485    3.875338    2.545755    1.465318
 O_a   :    2.698073    4.158994    5.059464    4.860298    3.656695    2.327733
 O_b   :    3.520178    4.747430    5.046089    4.236252    2.784994    2.311551

            H_1         H_2         H_3         H_4         H_5         N     
            ------      ------      ------      ------      ------      ------
 H_1   :    0.000000
 H_2   :    2.536800    0.000000
 H_3   :    4.387033    2.555191    0.000000
 H_4   :    5.008049    4.381721    2.533260    0.000000
 H_5   :    2.484255    4.378665    5.070752    4.354681    0.000000
 N     :    4.623346    5.435511    4.753466    2.779969    2.666135    0.000000
 O_a   :    4.789576    6.113825    5.820698    4.007644    2.419111    1.239790
 O_b   :    5.688434    6.113206    4.909543    2.514676    3.893520    1.239773

            O_a         O_b   
            ------      ------
 O_a   :    0.000000
 O_b   :    2.192597    0.000000


  Max    interatomic separation is    6.1138 Angstrom (   11.5535 Bohr)
  between atoms   13 and    8, "O_a   " and "H_2   ".

  Min HX interatomic separation is    1.0829 Angstrom (    2.0463 Bohr)

  Min YX interatomic separation is    1.2398 Angstrom (    2.3428 Bohr)


  Bond distances (Angstrom):
  --------------------------

                  atom 1     atom 2       distance
                  ------     ------       --------
  bond distance:  C_2        C_1          1.461199
  bond distance:  C_3        C_2          1.452001
  bond distance:  C_4        C_3          1.448199
  bond distance:  C_5        C_4          1.453655
  bond distance:  C_6        C_1          1.353049
  bond distance:  C_6        C_5          1.463238
  bond distance:  H_1        C_2          1.084529
  bond distance:  H_2        C_3          1.083124
  bond distance:  H_3        C_4          1.082856
  bond distance:  H_4        C_5          1.084432
  bond distance:  H_5        C_1          1.086234
  bond distance:  N          C_6          1.465318
  bond distance:  O_a        N            1.239790
  bond distance:  O_b        N            1.239773


  Bond angles (degrees):
  ----------------------

                  atom 1     atom 2     atom 3         angle
                  ------     ------     ------         -----
  bond angle:     C_2        C_1        C_6          119.972
  bond angle:     C_2        C_1        H_5          116.840
  bond angle:     C_6        C_1        H_5          123.188
  bond angle:     C_1        C_2        C_3          121.108
  bond angle:     C_1        C_2        H_1          119.406
  bond angle:     C_3        C_2        H_1          119.476
  bond angle:     C_2        C_3        C_4          118.753
  bond angle:     C_2        C_3        H_2          120.581
  bond angle:     C_4        C_3        H_2          120.648
  bond angle:     C_3        C_4        C_5          118.456
  bond angle:     C_3        C_4        H_3          120.820
  bond angle:     C_5        C_4        H_3          120.717
  bond angle:     C_4        C_5        C_6          120.584
  bond angle:     C_4        C_5        H_4          119.032
  bond angle:     C_6        C_5        H_4          120.383
  bond angle:     C_1        C_6        C_5          121.120
  bond angle:     C_1        C_6        N            118.128
  bond angle:     C_5        C_6        N            120.752
  bond angle:     C_6        N          O_a          118.507
  bond angle:     C_6        N          O_b          117.170
  bond angle:     O_a        N          O_b          124.323




 CPU time statistics for ABACUS
 ------------------------------

 ONEINT     00:00:15      85 %
 TWOTEX     00:00:02      15 %

 TOTAL      00:00:17     100 %


  Total CPU  time used in ABACUS:  17.02 seconds
  Total wall time used in ABACUS:  17.29 seconds


                   .-------------------------------------------.
                   | End of Static Property Section (ABACUS) - |
                   `-------------------------------------------'


Building simple model Hessian by Roland Lindh ...


           :::::::::::::::::::::::::::::::::::::::::::::::::::::::::::
           ::::::::::::::: Optimization Control Center :::::::::::::::
           :::::::::::::::::::::::::::::::::::::::::::::::::::::::::::



                                Next geometry (au)
                                ------------------

 C_1       -0.0380121930           -2.2973159291            0.8367856858
 C_2       -0.0491735135           -2.3962456676            3.5470753591
 C_3       -0.0214264912           -0.1308006109            4.9962592664
 C_4        0.0364829149            2.2624586777            3.7327912094
 C_5        0.0559408932            2.3420192194            1.0471527762
 C_6        0.0110695845            0.0247301296           -0.3503999596
 H_1       -0.0949730853           -4.2381077958            4.5023403777
 H_2       -0.0698061196           -0.2183361192            7.0694655737
 H_3        0.0514930843            4.0274711125            4.8242868657
 H_4        0.1148778674            4.1628759217            0.0502701444
 H_5       -0.0744274343           -4.0662077445           -0.2366076463
 N          0.0065714576            0.0574316320           -3.1799339856
 O_a        0.0980214586           -2.0992875056           -4.3416638992
 O_b       -0.1011130089            2.2492719591           -4.2678813767





                             Optimization information
                             ------------------------

 Iteration number               :       0
 End of optimization            :       F 
 Energy at this geometry is     :    -430.806449
 Norm of gradient               :       0.264209
 Norm of step                   :       0.500000
 Updated trust radius           :       0.500000
 Total Hessian index            :       0




 **************************************************************************************
 ****************** Output of molecule and basis set info suppressed ******************
 **************************************************************************************



                     .---------------------------------------.
                     | Starting in Integral Section (HERMIT) |
                     `---------------------------------------'



 ***************************************************************************************
 ****************** Output from **INTEGRALS input processing (HERMIT) ******************
 ***************************************************************************************


 - Using defaults, no **INTEGRALS input found

 Default print level:       -1

 * Nuclear model: Point charge

 Calculation of one- and two-electron Hamiltonian integrals.

 Center of mass  (bohr):     -0.000749884138      0.004278990617     -0.001505519306
 Operator center (bohr):      0.000000000000      0.000000000000      0.000000000000
 Gauge origin    (bohr):      0.000000000000      0.000000000000      0.000000000000
 Dipole origin   (bohr):      0.000000000000      0.000000000000      0.000000000000

 Threshold for neglecting two-electron integrals:  1.00D-12
 HERMIT - Number of two-electron integrals written:      708552 ( 87.1% )
 HERMIT - Megabytes written:                              8.114

  Time used in TWOINT     is       0.86 seconds
  Total CPU  time used in HERMIT:   0.89 seconds
  Total wall time used in HERMIT:   0.89 seconds


                        .----------------------------------.
                        | End of Integral Section (HERMIT) |
                        `----------------------------------'



                   .--------------------------------------------.
                   | Starting in Wave Function Section (SIRIUS) |
                   `--------------------------------------------'


 **********************************************************************
 *SIRIUS* a direct, restricted step, second order MCSCF program       *
 **********************************************************************

 (Wave function specification suppressed here, see output above for initial geometry.)


 ***********************************************
 ***** DIIS acceleration of SCF iterations *****
 ***********************************************

 C1-DIIS algorithm; max error vectors =    8

 Iter      Total energy        Error norm    Delta(E)  DIIS dim.
 -----------------------------------------------------------------------------
      K-S energy, electrons, error :    -46.904215002794  63.9999924820   -7.52D-06
@  1    -430.837158776        1.70430D-01   -3.07D-02    1
      Virial theorem: -V/T =      2.016608
@      MULPOP C_1    -0.08; C_2    -0.06; C_3    -0.07; C_4    -0.07; C_5    -0.06; C_6     0.06; H_1     0.09; H_2     0.09; H_3     0.09; H_4     0.10; 
@             H_5     0.11; N       0.07; O_a    -0.13; O_b    -0.13; 
 -----------------------------------------------------------------------------
      K-S energy, electrons, error :    -46.909830445467  63.9999923985   -7.60D-06
@  2    -430.839567856        3.94861D-02   -2.41D-03    2
      Virial theorem: -V/T =      2.016393
@      MULPOP C_1    -0.07; C_2    -0.07; C_3    -0.07; C_4    -0.07; C_5    -0.08; C_6     0.07; H_1     0.09; H_2     0.09; H_3     0.09; H_4     0.11; 
@             H_5     0.11; N       0.09; O_a    -0.14; O_b    -0.14; 
 -----------------------------------------------------------------------------
      K-S energy, electrons, error :    -46.907836529244  63.9999923995   -7.60D-06
@  3    -430.839210151        7.91175D-02    3.58D-04    3
      Virial theorem: -V/T =      2.016400
@      MULPOP C_1    -0.08; C_2    -0.06; C_3    -0.07; C_4    -0.07; C_5    -0.05; C_6     0.04; H_1     0.09; H_2     0.09; H_3     0.09; H_4     0.10; 
@             H_5     0.11; N       0.06; O_a    -0.15; O_b    -0.11; 
 -----------------------------------------------------------------------------
      K-S energy, electrons, error :    -46.908815777097  63.9999923867   -7.61D-06
@  4    -430.839550593        4.15015D-02   -3.40D-04    4
      Virial theorem: -V/T =      2.016402
@      MULPOP C_1    -0.08; C_2    -0.07; C_3    -0.07; C_4    -0.07; C_5    -0.07; C_6     0.06; H_1     0.09; H_2     0.09; H_3     0.09; H_4     0.10; 
@             H_5     0.11; N       0.08; O_a    -0.12; O_b    -0.15; 
 -----------------------------------------------------------------------------
      K-S energy, electrons, error :    -46.909082990194  63.9999923915   -7.61D-06
@  5    -430.839688311        5.43135D-03   -1.38D-04    5
      Virial theorem: -V/T =      2.016401
@      MULPOP C_1    -0.07; C_2    -0.07; C_3    -0.07; C_4    -0.07; C_5    -0.07; C_6     0.06; H_1     0.09; H_2     0.09; H_3     0.09; H_4     0.10; 
@             H_5     0.11; N       0.08; O_a    -0.14; O_b    -0.13; 
 -----------------------------------------------------------------------------
      K-S energy, electrons, error :    -46.909034244388  63.9999923901   -7.61D-06
@  6    -430.839690103        2.38382D-03   -1.79D-06    6
      Virial theorem: -V/T =      2.016399
@      MULPOP C_1    -0.07; C_2    -0.07; C_3    -0.07; C_4    -0.07; C_5    -0.07; C_6     0.06; H_1     0.09; H_2     0.09; H_3     0.09; H_4     0.10; 
@             H_5     0.11; N       0.08; O_a    -0.13; O_b    -0.13; 
 -----------------------------------------------------------------------------
      K-S energy, electrons, error :    -46.909060665682  63.9999923903   -7.61D-06
@  7    -430.839690542        2.84808D-04   -4.39D-07    7
      Virial theorem: -V/T =      2.016399
@      MULPOP C_1    -0.07; C_2    -0.07; C_3    -0.07; C_4    -0.07; C_5    -0.07; C_6     0.06; H_1     0.09; H_2     0.09; H_3     0.09; H_4     0.10; 
@             H_5     0.11; N       0.08; O_a    -0.13; O_b    -0.13; 
 -----------------------------------------------------------------------------
      K-S energy, electrons, error :    -46.909050505226  63.9999923902   -7.61D-06
@  8    -430.839690548        1.76255D-04   -5.43D-09    8
      Virial theorem: -V/T =      2.016399
@      MULPOP C_1    -0.07; C_2    -0.07; C_3    -0.07; C_4    -0.07; C_5    -0.07; C_6     0.06; H_1     0.09; H_2     0.09; H_3     0.09; H_4     0.10; 
@             H_5     0.11; N       0.08; O_a    -0.13; O_b    -0.13; 
 -----------------------------------------------------------------------------
      K-S energy, electrons, error :    -46.909050006224  63.9999923903   -7.61D-06
@  9    -430.839690551        3.53176D-05   -2.87D-09    8
      Virial theorem: -V/T =      2.016399
[...]


                   .-------------------------------------------.
                   | End of Static Property Section (ABACUS) - |
                   `-------------------------------------------'



            *********************************************************
            *** Output from geometry convergence control (MINEND) ***
            *********************************************************


 Energy converged       yes 
 Gradient converged     yes 
 Step converged         no  
 Conditions fullfilled   2
 Required conditions     2
 Totally sym. index      0
 Hessian index           0
 End of optimization    yes 


           :::::::::::::::::::::::::::::::::::::::::::::::::::::::::::
           ::::::::::::::: Optimization Control Center :::::::::::::::
           :::::::::::::::::::::::::::::::::::::::::::::::::::::::::::



                               Final geometry (au)
                               -------------------

 C_1       -0.0360729519           -2.3449147325            0.9262101801
 C_2       -0.0477655596           -2.4061381435            3.5877622016
 C_3       -0.0218156032           -0.1267744095            4.9752070779
 C_4        0.0158178212            2.2274162638            3.7191724284
 C_5        0.0279436636            2.3167519441            1.0584213361
 C_6        0.0018401505            0.0220791519           -0.2858422561
 H_1       -0.0769171982           -4.2292056373            4.5813394154
 H_2       -0.0313165228           -0.1855134120            7.0509283125
 H_3        0.0358808841            3.9913616039            4.8144850037
 H_4        0.0568727902            4.1023373900           -0.0052460434
 H_5       -0.0550041842           -4.0674852453           -0.2369447214
 N          0.0152127267            0.1052415444           -3.2261923854
 O_a       -0.0079304837           -2.0861890291           -4.4276166639
 O_b        0.0487798819            2.3609899905           -4.3017434947





                             Optimization information
                             ------------------------

 Iteration number               :      14
 End of optimization            :       T 
 Energy at this geometry is     :    -430.846457
 Energy change from last geom.  :      -0.000000
 Predicted change               :      -0.000000
 Ratio, actual/predicted change :       0.771298
 Norm of gradient               :       0.000045
 Norm of step                   :       0.001397
 Updated trust radius           :       0.001863
 Total Hessian index            :       0



 Center of mass dipole origin  :    0.000608    0.014131   -0.005685

 Center of mass gauge origin   :    0.000608    0.014131   -0.005685


                 .------------------------------------------------.
                 | Starting in Static Property Section (ABACUS) - |
                 `------------------------------------------------'


 
     Date and time (Linux)  : Sat Nov 10 02:27:26 2018
     Host name              : Mechanist                               


   ***************************************************************************
   ************************ FINAL RESULTS from ABACUS ************************
   ***************************************************************************


 
     Date and time (Linux)  : Sat Nov 10 02:27:26 2018
     Host name              : Mechanist                               


                             Molecular geometry (au)
                             -----------------------

 C_1       -0.0360729519           -2.3449147325            0.9262101801
 C_2       -0.0477655596           -2.4061381435            3.5877622016
 C_3       -0.0218156032           -0.1267744095            4.9752070779
 C_4        0.0158178212            2.2274162638            3.7191724284
 C_5        0.0279436636            2.3167519441            1.0584213361
 C_6        0.0018401505            0.0220791519           -0.2858422561
 H_1       -0.0769171982           -4.2292056373            4.5813394154
 H_2       -0.0313165228           -0.1855134120            7.0509283125
 H_3        0.0358808841            3.9913616039            4.8144850037
 H_4        0.0568727902            4.1023373900           -0.0052460434
 H_5       -0.0550041842           -4.0674852453           -0.2369447214
 N          0.0152127267            0.1052415444           -3.2261923854
 O_a       -0.0079304837           -2.0861890291           -4.4276166639
 O_b        0.0487798819            2.3609899905           -4.3017434947





                        Molecular wave function and energy
                        ----------------------------------

     Spatial symmetry   1 ( A   )
     Spin multiplicity  1
     2 * M_S            0
     State number       1
     Total charge       0

     Total energy       -430.8464572421 au (Hartrees)
                        -11723.92848352 eV
                          -1131187.1991 kJ/mol
                           -270360.2292 kcal/mol


                   Scalar Breit-Pauli relativistic corrections
                   -------------------------------------------

     Darwin correction:                          0.5664252640 au
     Mass-velocity correction:                  -0.7231553840 au

     Total relativistic correction:             -0.1567301200 au ( 0.0364%)
     Non-relativistic + relativistic energy:  -431.0031873621 au



      (Note that these corrections are NOT included in the results below.)


                                  Dipole moment
                                  -------------

                 au               Debye          C m (/(10**-30)
              1.214255           3.086329          10.294885


                             Dipole moment components
                             ------------------------

                 au               Debye          C m (/(10**-30)

      x     -0.00551004        -0.01400513        -0.04671610
      y     -0.03431871        -0.08722946        -0.29096617
      z      1.21375765         3.08506402        10.29066588


   Units:   1 a.u. =   2.54175 Debye 
            1 a.u. =   8.47835 (10**-30) C m (SI)




   Interatomic separations (in Angstrom):
   --------------------------------------

            C_1         C_2         C_3         C_4         C_5         C_6   
            ------      ------      ------      ------      ------      ------
 C_1   :    0.000000
 C_2   :    1.408819    0.000000
 C_3   :    2.443099    1.412137    0.000000
 C_4   :    2.835400    2.453188    1.412145    0.000000
 C_5   :    2.468072    2.835372    2.443086    1.408817    0.000000
 C_6   :    1.407370    2.419417    2.785170    2.419437    1.407378    0.000000
 H_1   :    2.176211    1.098807    2.181090    3.447373    3.934158    3.420020
 H_2   :    3.436606    2.177033    1.098876    2.177038    3.436597    3.884045
 H_3   :    3.934185    3.447371    2.181096    1.098806    2.176224    3.420045
 H_4   :    3.447512    3.934493    3.457779    2.206631    1.099943    2.164475
 H_5   :    1.099943    2.206644    3.457793    3.934519    3.447513    2.164468
 N     :    2.551509    3.843043    4.341774    3.843070    2.551537    1.556605
 O_a   :    2.836468    4.244986    5.082653    4.878139    3.722482    2.459347
 O_b   :    3.722499    4.878174    5.082740    4.245110    2.836595    2.459403

            H_1         H_2         H_3         H_4         H_5         N     
            ------      ------      ------      ------      ------      ------
 H_1   :    0.000000
 H_2   :    2.507451    0.000000
 H_3   :    4.352295    2.507456    0.000000
 H_4   :    5.033287    4.369576    2.551192    0.000000
 H_5   :    2.551188    4.369586    5.033313    4.325427    0.000000
 N     :    4.725807    5.440650    4.725847    2.716541    2.716498    0.000000
 O_a   :    4.900494    6.156906    5.853451    4.025207    2.453094    1.322554
 O_b   :    5.853466    6.157000    4.900647    2.453251    4.025180    1.322555

            O_a         O_b   
            ------      ------
 O_a   :    0.000000
 O_b   :    2.354480    0.000000


  Max    interatomic separation is    6.1570 Angstrom (   11.6350 Bohr)
  between atoms   14 and    8, "O_b   " and "H_2   ".

  Min HX interatomic separation is    1.0988 Angstrom (    2.0764 Bohr)

  Min YX interatomic separation is    1.3226 Angstrom (    2.4993 Bohr)


  Bond distances (Angstrom):
  --------------------------

                  atom 1     atom 2       distance
                  ------     ------       --------
  bond distance:  C_2        C_1          1.408819
  bond distance:  C_3        C_2          1.412137
  bond distance:  C_4        C_3          1.412145
  bond distance:  C_5        C_4          1.408817
  bond distance:  C_6        C_1          1.407370
  bond distance:  C_6        C_5          1.407378
  bond distance:  H_1        C_2          1.098807
  bond distance:  H_2        C_3          1.098876
  bond distance:  H_3        C_4          1.098806
  bond distance:  H_4        C_5          1.099943
  bond distance:  H_5        C_1          1.099943
  bond distance:  N          C_6          1.556605
  bond distance:  O_a        N            1.322554
  bond distance:  O_b        N            1.322555


  Bond angles (degrees):
  ----------------------

                  atom 1     atom 2     atom 3         angle
                  ------     ------     ------         -----
  bond angle:     C_2        C_1        C_6          118.434
  bond angle:     C_2        C_1        H_5          122.707
  bond angle:     C_6        C_1        H_5          118.860
  bond angle:     C_1        C_2        C_3          120.006
  bond angle:     C_1        C_2        H_1          119.909
  bond angle:     C_3        C_2        H_1          120.085
  bond angle:     C_2        C_3        C_4          120.594
  bond angle:     C_2        C_3        H_2          119.703
  bond angle:     C_4        C_3        H_2          119.703
  bond angle:     C_3        C_4        C_5          120.005
  bond angle:     C_3        C_4        H_3          120.085
  bond angle:     C_5        C_4        H_3          119.910
  bond angle:     C_4        C_5        C_6          118.435
  bond angle:     C_4        C_5        H_4          122.705
  bond angle:     C_6        C_5        H_4          118.860
  bond angle:     C_1        C_6        C_5          122.526
  bond angle:     C_1        C_6        N            118.736
  bond angle:     C_5        C_6        N            118.738
  bond angle:     C_6        N          O_a          117.109
  bond angle:     C_6        N          O_b          117.113
  bond angle:     O_a        N          O_b          125.778




 CPU time statistics for ABACUS
 ------------------------------




  Total CPU  time used in ABACUS:   0.03 seconds
  Total wall time used in ABACUS:   0.04 seconds


                   .-------------------------------------------.
                   | End of Static Property Section (ABACUS) - |
                   `-------------------------------------------'



          <<<<<<<<<<<<<<<<<<<<<<<<<<<<<<<<<<<<<<<<<<<<<<<<<<<<<<<<<<<<<<
          <<<<<<<<<<<<<<<<<<<<  End of Optimization <<<<<<<<<<<<<<<<<<<<
          <<<<<<<<<<<<<<<<<<<<<<<<<<<<<<<<<<<<<<<<<<<<<<<<<<<<<<<<<<<<<<



                              Final geometry (bohr)
                              ---------------------

 C_1       -0.0360729519           -2.3449147325            0.9262101801
 C_2       -0.0477655596           -2.4061381435            3.5877622016
 C_3       -0.0218156032           -0.1267744095            4.9752070779
 C_4        0.0158178212            2.2274162638            3.7191724284
 C_5        0.0279436636            2.3167519441            1.0584213361
 C_6        0.0018401505            0.0220791519           -0.2858422561
 H_1       -0.0769171982           -4.2292056373            4.5813394154
 H_2       -0.0313165228           -0.1855134120            7.0509283125
 H_3        0.0358808841            3.9913616039            4.8144850037
 H_4        0.0568727902            4.1023373900           -0.0052460434
 H_5       -0.0550041842           -4.0674852453           -0.2369447214
 N          0.0152127267            0.1052415444           -3.2261923854
 O_a       -0.0079304837           -2.0861890291           -4.4276166639
 O_b        0.0487798819            2.3609899905           -4.3017434947





                      Final geometry (xyz format; angstrom)
                      -------------------------------------

14

C_1     -0.0190889841           -1.2408754377            0.4901293197
C_2     -0.0252764456           -1.2732734716            1.8985619949
C_3     -0.0115443200           -0.0670861284            2.6327662046
C_4      0.0083704305            1.1786979258            1.9681012921
C_5      0.0147871499            1.2259723319            0.5600924505
C_6      0.0009737657            0.0116837840           -0.1512612078
H_1     -0.0407028284           -2.2379992431            2.4243404136
H_2     -0.0165719902           -0.0981694699            3.7311905779
H_3      0.0189873462            2.1121376008            2.5477157457
H_4      0.0300957845            2.1708634578           -0.0027760866
H_5     -0.0291069608           -2.1524204971           -0.1253857468
N        0.0080502283            0.0556914269           -1.7072274880
O_a     -0.0041966313           -1.1039636916           -2.3429938367
O_b      0.0258132019            1.2493820979           -2.2763846241



@ Iter     Energy        Change       GradNorm  Index   StepLen    TrustRad #Rej
@ ------------------------------------------------------------------------------
@   0     -430.806449     0.000000     0.264209    0    0.500000    0.500000   0 
@   1     -430.839691    -0.033242     0.090652    0    0.395058*   0.600000   0 
@   2     -430.845953    -0.006263     0.018879    0    0.121814*   0.600000   1 
@   3     -430.846220    -0.000267     0.013340    0    0.121814    0.121814   0 
@   4     -430.846370    -0.000150     0.008967    0    0.047620*   0.121814   1 
@   5     -430.846416    -0.000046     0.006756    0    0.047620    0.047620   0 
@   6     -430.846441    -0.000025     0.002620    0    0.043356*   0.047620   0 
@   7     -430.846448    -0.000006     0.001694    0    0.024002*   0.043356   0 
@   8     -430.846455    -0.000008     0.000686    0    0.010261*   0.043356   1 
@   9     -430.846456    -0.000001     0.000503    0    0.007470*   0.010261   0 
@  10     -430.846457    -0.000001     0.000219    0    0.009165*   0.010261   0 
@  11     -430.846457    -0.000000     0.000292    0    0.004690*   0.009165   0 
@  12     -430.846457    -0.000000     0.000201    0    0.002579*   0.004690   0 
@  13     -430.846457    -0.000000     0.000113    0    0.001863*   0.002579   0 
@  14     -430.846457    -0.000000     0.000045    0    0.001397*   0.001863   0 

@  *) Newton step taken.


   Interatomic separations (in Angstrom):
   --------------------------------------

            C_1         C_2         C_3         C_4         C_5         C_6   
            ------      ------      ------      ------      ------      ------
 C_1   :    0.000000
 C_2   :    1.408819    0.000000
 C_3   :    2.443099    1.412137    0.000000
 C_4   :    2.835400    2.453188    1.412145    0.000000
 C_5   :    2.468072    2.835372    2.443086    1.408817    0.000000
 C_6   :    1.407370    2.419417    2.785170    2.419437    1.407378    0.000000
 H_1   :    2.176211    1.098807    2.181090    3.447373    3.934158    3.420020
 H_2   :    3.436606    2.177033    1.098876    2.177038    3.436597    3.884045
 H_3   :    3.934185    3.447371    2.181096    1.098806    2.176224    3.420045
 H_4   :    3.447512    3.934493    3.457779    2.206631    1.099943    2.164475
 H_5   :    1.099943    2.206644    3.457793    3.934519    3.447513    2.164468
 N     :    2.551509    3.843043    4.341774    3.843070    2.551537    1.556605
 O_a   :    2.836468    4.244986    5.082653    4.878139    3.722482    2.459347
 O_b   :    3.722499    4.878174    5.082740    4.245110    2.836595    2.459403

            H_1         H_2         H_3         H_4         H_5         N     
            ------      ------      ------      ------      ------      ------
 H_1   :    0.000000
 H_2   :    2.507451    0.000000
 H_3   :    4.352295    2.507456    0.000000
 H_4   :    5.033287    4.369576    2.551192    0.000000
 H_5   :    2.551188    4.369586    5.033313    4.325427    0.000000
 N     :    4.725807    5.440650    4.725847    2.716541    2.716498    0.000000
 O_a   :    4.900494    6.156906    5.853451    4.025207    2.453094    1.322554
 O_b   :    5.853466    6.157000    4.900647    2.453251    4.025180    1.322555

            O_a         O_b   
            ------      ------
 O_a   :    0.000000
 O_b   :    2.354480    0.000000


  Max    interatomic separation is    6.1570 Angstrom (   11.6350 Bohr)
  between atoms   14 and    8, "O_b   " and "H_2   ".

  Min HX interatomic separation is    1.0988 Angstrom (    2.0764 Bohr)

  Min YX interatomic separation is    1.3226 Angstrom (    2.4993 Bohr)


  Bond distances (Angstrom):
  --------------------------

                  atom 1     atom 2       distance
                  ------     ------       --------
  bond distance:  C_2        C_1          1.408819
  bond distance:  C_3        C_2          1.412137
  bond distance:  C_4        C_3          1.412145
  bond distance:  C_5        C_4          1.408817
  bond distance:  C_6        C_1          1.407370
  bond distance:  C_6        C_5          1.407378
  bond distance:  H_1        C_2          1.098807
  bond distance:  H_2        C_3          1.098876
  bond distance:  H_3        C_4          1.098806
  bond distance:  H_4        C_5          1.099943
  bond distance:  H_5        C_1          1.099943
  bond distance:  N          C_6          1.556605
  bond distance:  O_a        N            1.322554
  bond distance:  O_b        N            1.322555


  Bond angles (degrees):
  ----------------------

                  atom 1     atom 2     atom 3         angle
                  ------     ------     ------         -----
  bond angle:     C_2        C_1        C_6          118.434
  bond angle:     C_2        C_1        H_5          122.707
  bond angle:     C_6        C_1        H_5          118.860
  bond angle:     C_1        C_2        C_3          120.006
  bond angle:     C_1        C_2        H_1          119.909
  bond angle:     C_3        C_2        H_1          120.085
  bond angle:     C_2        C_3        C_4          120.594
  bond angle:     C_2        C_3        H_2          119.703
  bond angle:     C_4        C_3        H_2          119.703
  bond angle:     C_3        C_4        C_5          120.005
  bond angle:     C_3        C_4        H_3          120.085
  bond angle:     C_5        C_4        H_3          119.910
  bond angle:     C_4        C_5        C_6          118.435
  bond angle:     C_4        C_5        H_4          122.705
  bond angle:     C_6        C_5        H_4          118.860
  bond angle:     C_1        C_6        C_5          122.526
  bond angle:     C_1        C_6        N            118.736
  bond angle:     C_5        C_6        N            118.738
  bond angle:     C_6        N          O_a          117.109
  bond angle:     C_6        N          O_b          117.113
  bond angle:     O_a        N          O_b          125.778



@ Geometry converged in 15 iterations!

@ Energy at final geometry is       :    -430.846457 a.u.
@ Energy change during optimization :      -0.040008 a.u.
@                                           -105.042 kJ/mol

  Total CPU  time used in DALTON: 11 minutes 18 seconds
  Total wall time used in DALTON: 11 minutes 37 seconds

 
     Date and time (Linux)  : Sat Nov 10 02:27:26 2018
     Host name              : Mechanist                               
