

     ************************************************************************
     *************** Dalton - An Electronic Structure Program ***************
     ************************************************************************

    This is output from DALTON release Dalton2016.2 (2016)
         ( Web site: http://daltonprogram.org )

   ----------------------------------------------------------------------------

    NOTE:
     
    Dalton is an experimental code for the evaluation of molecular
    properties using (MC)SCF, DFT, CI, and CC wave functions.
    The authors accept no responsibility for the performance of
    the code or for the correctness of the results.
     
    The code (in whole or part) is provided under a licence and
    is not to be reproduced for further distribution without
    the written permission of the authors or their representatives.
     
    See the home page "http://daltonprogram.org" for further information.
     
    If results obtained with this code are published,
    the appropriate citations would be both of:
     
       K. Aidas, C. Angeli, K. L. Bak, V. Bakken, R. Bast,
       L. Boman, O. Christiansen, R. Cimiraglia, S. Coriani,
       P. Dahle, E. K. Dalskov, U. Ekstroem,
       T. Enevoldsen, J. J. Eriksen, P. Ettenhuber, B. Fernandez,
       L. Ferrighi, H. Fliegl, L. Frediani, K. Hald, A. Halkier,
       C. Haettig, H. Heiberg, T. Helgaker, A. C. Hennum,
       H. Hettema, E. Hjertenaes, S. Hoest, I.-M. Hoeyvik,
       M. F. Iozzi, B. Jansik, H. J. Aa. Jensen, D. Jonsson,
       P. Joergensen, J. Kauczor, S. Kirpekar,
       T. Kjaergaard, W. Klopper, S. Knecht, R. Kobayashi, H. Koch,
       J. Kongsted, A. Krapp, K. Kristensen, A. Ligabue,
       O. B. Lutnaes, J. I. Melo, K. V. Mikkelsen, R. H. Myhre,
       C. Neiss, C. B. Nielsen, P. Norman, J. Olsen,
       J. M. H. Olsen, A. Osted, M. J. Packer, F. Pawlowski,
       T. B. Pedersen, P. F. Provasi, S. Reine, Z. Rinkevicius,
       T. A. Ruden, K. Ruud, V. Rybkin, P. Salek, C. C. M. Samson,
       A. Sanchez de Meras, T. Saue, S. P. A. Sauer,
       B. Schimmelpfennig, K. Sneskov, A. H. Steindal,
       K. O. Sylvester-Hvid, P. R. Taylor, A. M. Teale,
       E. I. Tellgren, D. P. Tew, A. J. Thorvaldsen, L. Thoegersen,
       O. Vahtras, M. A. Watson, D. J. D. Wilson, M. Ziolkowski
       and H. Agren,
       "The Dalton quantum chemistry program system",
       WIREs Comput. Mol. Sci. 2014, 4:269–284 (doi: 10.1002/wcms.1172)
     
    and
     
       Dalton, a Molecular Electronic Structure Program,
       Release Dalton2016.2 (2016), see http://daltonprogram.org
   ----------------------------------------------------------------------------

    Authors in alphabetical order (major contribution(s) in parenthesis):

  Kestutis Aidas,           Vilnius University,           Lithuania   (QM/MM)
  Celestino Angeli,         University of Ferrara,        Italy       (NEVPT2)
  Keld L. Bak,              UNI-C,                        Denmark     (AOSOPPA, non-adiabatic coupling, magnetic properties)
  Vebjoern Bakken,          University of Oslo,           Norway      (DALTON; geometry optimizer, symmetry detection)
  Radovan Bast,             UiT The Arctic U. of Norway,  Norway      (DALTON installation and execution frameworks)
  Pablo Baudin,             University of Valencia,       Spain       (Cholesky excitation energies)
  Linus Boman,              NTNU,                         Norway      (Cholesky decomposition and subsystems)
  Ove Christiansen,         Aarhus University,            Denmark     (CC module)
  Renzo Cimiraglia,         University of Ferrara,        Italy       (NEVPT2)
  Sonia Coriani,            University of Trieste,        Italy       (CC module, MCD in RESPONS)
  Janusz Cukras,            University of Trieste,        Italy       (MChD in RESPONS)
  Paal Dahle,               University of Oslo,           Norway      (Parallelization)
  Erik K. Dalskov,          UNI-C,                        Denmark     (SOPPA)
  Thomas Enevoldsen,        Univ. of Southern Denmark,    Denmark     (SOPPA)
  Janus J. Eriksen,         Aarhus University,            Denmark     (Polarizable embedding model, TDA)
  Rasmus Faber,             University of Copenhagen,     Denmark     (Vib.avg. NMR with SOPPA, parallel AO-SOPPA)
  Berta Fernandez,          U. of Santiago de Compostela, Spain       (doublet spin, ESR in RESPONS)
  Lara Ferrighi,            Aarhus University,            Denmark     (PCM Cubic response)
  Heike Fliegl,             University of Oslo,           Norway      (CCSD(R12))
  Luca Frediani,            UiT The Arctic U. of Norway,  Norway      (PCM)
  Bin Gao,                  UiT The Arctic U. of Norway,  Norway      (Gen1Int library)
  Christof Haettig,         Ruhr-University Bochum,       Germany     (CC module)
  Kasper Hald,              Aarhus University,            Denmark     (CC module)
  Asger Halkier,            Aarhus University,            Denmark     (CC module)
  Frederik Beyer Hansen,    University of Copenhagen,     Denmark     (Parallel AO-SOPPA)
  Erik D. Hedegaard,        Univ. of Southern Denmark,    Denmark     (Polarizable embedding model, QM/MM)
  Hanne Heiberg,            University of Oslo,           Norway      (geometry analysis, selected one-electron integrals)
  Trygve Helgaker,          University of Oslo,           Norway      (DALTON; ABACUS, ERI, DFT modules, London, and much more)
  Alf Christian Hennum,     University of Oslo,           Norway      (Parity violation)
  Hinne Hettema,            University of Auckland,       New Zealand (quadratic response in RESPONS; SIRIUS supersymmetry)
  Eirik Hjertenaes,         NTNU,                         Norway      (Cholesky decomposition)
  Maria Francesca Iozzi,    University of Oslo,           Norway      (RPA)
  Brano Jansik              Technical Univ. of Ostrava    Czech Rep.  (DFT cubic response)
  Hans Joergen Aa. Jensen,  Univ. of Southern Denmark,    Denmark     (DALTON; SIRIUS, RESPONS, ABACUS modules, London, and much more)
  Dan Jonsson,              UiT The Arctic U. of Norway,  Norway      (cubic response in RESPONS module)
  Poul Joergensen,          Aarhus University,            Denmark     (RESPONS, ABACUS, and CC modules)
  Maciej Kaminski,          University of Warsaw,         Poland      (CPPh in RESPONS)
  Joanna Kauczor,           Linkoeping University,        Sweden      (Complex polarization propagator (CPP) module)
  Sheela Kirpekar,          Univ. of Southern Denmark,    Denmark     (Mass-velocity & Darwin integrals)
  Wim Klopper,              KIT Karlsruhe,                Germany     (R12 code in CC, SIRIUS, and ABACUS modules)
  Stefan Knecht,            ETH Zurich,                   Switzerland (Parallel CI and MCSCF)
  Rika Kobayashi,           Australian National Univ.,    Australia   (DIIS in CC, London in MCSCF)
  Henrik Koch,              NTNU,                         Norway      (CC module, Cholesky decomposition)
  Jacob Kongsted,           Univ. of Southern Denmark,    Denmark     (Polarizable embedding model, QM/MM)
  Andrea Ligabue,           University of Modena,         Italy       (CTOCD, AOSOPPA)
  Nanna H. List             Univ. of Southern Denmark,    Denmark     (Polarizable embedding model)
  Ola B. Lutnaes,           University of Oslo,           Norway      (DFT Hessian)
  Juan I. Melo,             University of Buenos Aires,   Argentina   (LRESC, Relativistic Effects on NMR Shieldings)
  Kurt V. Mikkelsen,        University of Copenhagen,     Denmark     (MC-SCRF and QM/MM)
  Rolf H. Myhre,            NTNU,                         Norway      (Cholesky, subsystems and ECC2)
  Christian Neiss,          Univ. Erlangen-Nuernberg,     Germany     (CCSD(R12))
  Christian B. Nielsen,     University of Copenhagen,     Denmark     (QM/MM)
  Patrick Norman,           Linkoeping University,        Sweden      (Cubic response and complex frequency response in RESPONS)
  Jeppe Olsen,              Aarhus University,            Denmark     (SIRIUS CI/density modules)
  Jogvan Magnus H. Olsen,   Univ. of Southern Denmark,    Denmark     (Polarizable embedding model, QM/MM)
  Anders Osted,             Copenhagen University,        Denmark     (QM/MM)
  Martin J. Packer,         University of Sheffield,      UK          (SOPPA)
  Filip Pawlowski,          Kazimierz Wielki University,  Poland      (CC3)
  Morten N. Pedersen,       Univ. of Southern Denmark,    Denmark     (Polarizable embedding model)
  Thomas B. Pedersen,       University of Oslo,           Norway      (Cholesky decomposition)
  Patricio F. Provasi,      University of Northeastern,   Argentina   (Analysis of coupling constants in localized orbitals)
  Zilvinas Rinkevicius,     KTH Stockholm,                Sweden      (open-shell DFT, ESR)
  Elias Rudberg,            KTH Stockholm,                Sweden      (DFT grid and basis info)
  Torgeir A. Ruden,         University of Oslo,           Norway      (Numerical derivatives in ABACUS)
  Kenneth Ruud,             UiT The Arctic U. of Norway,  Norway      (DALTON; ABACUS magnetic properties and much more)
  Pawel Salek,              KTH Stockholm,                Sweden      (DALTON; DFT code)
  Claire C. M. Samson       University of Karlsruhe       Germany     (Boys localization, r12 integrals in ERI)
  Alfredo Sanchez de Meras, University of Valencia,       Spain       (CC module, Cholesky decomposition)
  Trond Saue,               Paul Sabatier University,     France      (direct Fock matrix construction)
  Stephan P. A. Sauer,      University of Copenhagen,     Denmark     (SOPPA(CCSD), SOPPA prop., AOSOPPA, vibrational g-factors)
  Bernd Schimmelpfennig,    Forschungszentrum Karlsruhe,  Germany     (AMFI module)
  Kristian Sneskov,         Aarhus University,            Denmark     (Polarizable embedding model, QM/MM)
  Arnfinn H. Steindal,      UiT The Arctic U. of Norway,  Norway      (parallel QM/MM, Polarizable embedding model)
  Casper Steinmann,         Univ. of Southern Denmark,    Denmark     (QFIT, Polarizable embedding model)
  K. O. Sylvester-Hvid,     University of Copenhagen,     Denmark     (MC-SCRF)
  Peter R. Taylor,          VLSCI/Univ. of Melbourne,     Australia   (Symmetry handling ABACUS, integral transformation)
  Andrew M. Teale,          University of Nottingham,     England     (DFT-AC, DFT-D)
  David P. Tew,             University of Bristol,        England     (CCSD(R12))
  Olav Vahtras,             KTH Stockholm,                Sweden      (triplet response, spin-orbit, ESR, TDDFT, open-shell DFT)
  David J. Wilson,          La Trobe University,          Australia   (DFT Hessian and DFT magnetizabilities)
  Hans Agren,               KTH Stockholm,                Sweden      (SIRIUS module, RESPONS, MC-SCRF solvation model)
 --------------------------------------------------------------------------------

     Date and time (Linux)  : Sat Nov 24 14:01:57 2018
     Host name              : Mechanist                               

 * Work memory size             :    64000000 =  488.28 megabytes.

 * Directories for basis set searches:
   1) /home/Main/dalton/build_gnu_builtin_2016
   2) /home/Main/dalton/build_gnu_builtin_2016/basis


Compilation information
-----------------------

 Who compiled             | Main
 Host                     | Mechanist
 System                   | Linux-4.4.0-17134-Microsoft
 CMake generator          | Unix Makefiles
 Processor                | x86_64
 64-bit integers          | OFF
 MPI                      | OFF
 Fortran compiler         | /home/Main/psi4conda/bin/gfortran
 Fortran compiler version | GNU Fortran (GCC) 5.2.0
 C compiler               | /home/Main/psi4conda/bin/gcc
 C compiler version       | gcc (GCC) 5.2.0
 C++ compiler             | /home/Main/psi4conda/bin/g++
 C++ compiler version     | g++ (GCC) 5.2.0
 Static linking           | OFF
 Last Git revision        | 130ffaa0613bb3af6cac766fc8183d6df7d68917
 Git branch               | release/2016
 Configuration time       | 2018-11-08 14:06:24.912435


   Content of the .dal input file
 ----------------------------------

**DALTON INPUT
.RUN RESPONSE
.DIRECT
**WAVE FUNCTIONS
.DFT
B3LYP
**RESPONSE
*CUBIC
.DIPLEN
**END OF DALTON INPUT


   Content of the .mol file
 ----------------------------

BASIS
STO-3G
nitrobenzene
-----------
Atomtypes=4 Angstrom
Charge=6.0 Atoms=6
C1 0.53586175637875730 -1.130144079065937800 -0.401568006029394000
C2 1.86295342056128880 -1.261283358432358600 -0.004591703041508497
C3 2.47617684842809900 -0.251125322126804700 0.737033082778232700
C4 1.76455291480099370 0.897028530525922500 1.086090069641705000
C5 0.43681197355060775 1.042357481974351500 0.696340338372404900
C6 -0.15483907103436842 0.022892869108663512 -0.042636781643002365
Charge=1.0 Atoms=5
H1 2.41783503421020730 -2.153247877123786000 -0.274943210823470840
H2 3.51153712712080000 -0.358947808613471400 1.043798936522883500
H3 2.24301450407709570 1.681301625659504100 1.662784396092357000
H4 -0.14107662338424765 1.920612337052382000 0.951570739616678300
H5 0.03299385407118749 -1.895838041802216000 -0.977122623182572800
Charge=7.0 Atoms=1
N -1.56784197706596500 0.170074311550342140 -0.461345202900563000
Charge=8.0 Atoms=2
Oa -2.06419932146861740 -0.740623738594511000 -1.110654473732936200
Ob -2.15265560171339840 1.193378341026107400 -0.132414477138042270


       *******************************************************************
       *********** Output from DALTON general input processing ***********
       *******************************************************************

 --------------------------------------------------------------------------------
   Overall default print level:    0
   Print level for DALTON.STAT:    1

    AO-direct calculation (in sections where implemented)
    HERMIT 1- and 2-electron integral sections will be executed
    "Old" integral transformation used (limited to max 255 basis functions)
    Wave function sections will be executed (SIRIUS module)
    Dynamic molecular response properties section will be executed (RESPONSE module)
 --------------------------------------------------------------------------------


   ****************************************************************************
   *************** Output of molecule and basis set information ***************
   ****************************************************************************


    The two title cards from your ".mol" input:
    ------------------------------------------------------------------------
 1: nitrobenzene                                                            
 2: -----------                                                             
    ------------------------------------------------------------------------

  Coordinates are entered in Angstrom and converted to atomic units.
          - Conversion factor : 1 bohr = 0.52917721 A

  Atomic type no.    1
  --------------------
  Nuclear charge:   6.00000
  Number of symmetry independent centers:    6
  Number of basis sets to read;    2
  Basis set file used for this atomic type with Z =   6 :
     "/home/Main/dalton/build_gnu_builtin_2016/basis/STO-3G"

  Atomic type no.    2
  --------------------
  Nuclear charge:   1.00000
  Number of symmetry independent centers:    5
  Number of basis sets to read;    2
  Basis set file used for this atomic type with Z =   1 :
     "/home/Main/dalton/build_gnu_builtin_2016/basis/STO-3G"

  Atomic type no.    3
  --------------------
  Nuclear charge:   7.00000
  Number of symmetry independent centers:    1
  Number of basis sets to read;    2
  Basis set file used for this atomic type with Z =   7 :
     "/home/Main/dalton/build_gnu_builtin_2016/basis/STO-3G"

  Atomic type no.    4
  --------------------
  Nuclear charge:   8.00000
  Number of symmetry independent centers:    2
  Number of basis sets to read;    2
  Basis set file used for this atomic type with Z =   8 :
     "/home/Main/dalton/build_gnu_builtin_2016/basis/STO-3G"


                      SYMADD: Requested addition of symmetry
                      --------------------------------------

 Symmetry test threshold:  5.00E-06

@   The molecule is centered at center of mass and rotated
@   so principal axes of inertia are along coordinate axes.

 Symmetry class found: C(1)           

 Symmetry Independent Centres             
 ----------------------------
       8 :     -0.00055266     2.04951907    -4.20498269  Isotope  1
       8 :      0.00055648    -2.04954986    -4.20498111  Isotope  1
       7 :     -0.00000746    -0.00001087    -3.13421683  Isotope  1
       6 :     -0.00002045     0.00002582    -0.33540782  Isotope  1
       6 :     -0.00022357    -2.30183734     0.93464335  Isotope  1
       6 :      0.00025498     2.30187704     0.93459076  Isotope  1
       6 :      0.00028498     2.28678482     3.56388930  Isotope  1
       6 :     -0.00028070    -2.28681290     3.56391605  Isotope  1
       6 :     -0.00001960     0.00000813     4.87599494  Isotope  1
       1 :     -0.00043851    -4.04364237    -0.13577450  Isotope  1
       1 :      0.00038068     4.04373459    -0.13573681  Isotope  1
       1 :      0.00065315     4.06280277     4.58732407  Isotope  1
       1 :     -0.00039208    -4.06282622     4.58736221  Isotope  1
       1 :     -0.00010825     0.00002841     6.92676304  Isotope  1

 No symmetry elements were found.


                         SYMGRP: Point group information
                         -------------------------------

@    Full point group is: C(1)           
@    Represented as:      C1 


                                 Isotopic Masses
                                 ---------------

                           C1         12.000000
                           C2         12.000000
                           C3         12.000000
                           C4         12.000000
                           C5         12.000000
                           C6         12.000000
                           H1          1.007825
                           H2          1.007825
                           H3          1.007825
                           H4          1.007825
                           H5          1.007825
                           N          14.003074
                           Oa         15.994915
                           Ob         15.994915

                       Total mass:   123.032029 amu
                       Natural abundance:  92.716 %

 Center-of-mass coordinates (a.u.):    0.000000    0.000000    0.000000


  Atoms and basis sets
  --------------------

  Number of atom types :    4
  Total number of atoms:   14

  Basis set used is "STO-3G" from the basis set library.

  label    atoms   charge   prim   cont     basis
  ----------------------------------------------------------------------
  C6          6    6.0000    15     5      [6s3p|2s1p]                                        
  H5          5    1.0000     3     1      [3s|1s]                                            
  N           1    7.0000    15     5      [6s3p|2s1p]                                        
  Ob          2    8.0000    15     5      [6s3p|2s1p]                                        
  ----------------------------------------------------------------------
  total:     14   64.0000   150    50
  ----------------------------------------------------------------------

  Threshold for neglecting AO integrals:  1.00D-12


   Interatomic separations (in Angstrom):
   --------------------------------------

            C1          C2          C3          C4          C5          C6    
            ------      ------      ------      ------      ------      ------
 C1    :    0.000000
 C2    :    1.391388    0.000000
 C3    :    2.415349    1.395159    0.000000
 C4    :    2.798613    2.420244    1.395173    0.000000
 C5    :    2.436181    2.798561    2.415318    1.391374    0.000000
 C6    :    1.391184    2.392079    2.757756    2.392113    1.391203    0.000000
 H1    :    2.145833    1.084705    2.155358    3.403436    3.883264    3.377604
 H2    :    3.396833    2.152013    1.085220    2.152027    3.396810    3.842975
 H3    :    3.883317    3.403439    2.155378    1.084706    2.145840    3.377645
 H4    :    3.405341    3.880057    3.407710    2.167312    1.081864    2.142423
 H5    :    1.081863    2.167309    3.407720    3.880109    3.405369    2.142446
 N     :    2.473805    3.745366    4.238822    3.745380    2.473813    1.481066
 Oa    :    2.723022    4.113027    4.926314    4.708177    3.563609    2.317170
 Ob    :    3.563611    4.708165    4.926319    4.113040    2.723047    2.317189

            H1          H2          H3          H4          H5          N     
            ------      ------      ------      ------      ------      ------
 H1    :    0.000000
 H2    :    2.480882    0.000000
 H3    :    4.299898    2.480909    0.000000
 H4    :    4.964746    4.306563    2.499397    0.000000
 H5    :    2.499357    4.306555    4.964799    4.279656    0.000000
 N     :    4.617163    5.324041    4.617181    2.663902    2.663962    0.000000
 Oa    :    4.773107    5.989673    5.666549    3.877287    2.398035    1.223660
 Ob    :    5.666534    5.989681    4.773125    2.397987    3.877351    1.223664

            Oa          Ob    
            ------      ------
 Oa    :    0.000000
 Ob    :    2.169134    0.000000


  Max    interatomic separation is    5.9897 Angstrom (   11.3189 Bohr)
  between atoms   14 and    8, "Ob    " and "H2    ".

  Min HX interatomic separation is    1.0819 Angstrom (    2.0444 Bohr)

  Min YX interatomic separation is    1.2237 Angstrom (    2.3124 Bohr)


  Bond distances (Angstrom):
  --------------------------

                  atom 1     atom 2       distance
                  ------     ------       --------
  bond distance:  C2         C1           1.391388
  bond distance:  C3         C2           1.395159
  bond distance:  C4         C3           1.395173
  bond distance:  C5         C4           1.391374
  bond distance:  C6         C1           1.391184
  bond distance:  C6         C5           1.391203
  bond distance:  H1         C2           1.084705
  bond distance:  H2         C3           1.085220
  bond distance:  H3         C4           1.084706
  bond distance:  H4         C5           1.081864
  bond distance:  H5         C1           1.081863
  bond distance:  N          C6           1.481066
  bond distance:  Oa         N            1.223660
  bond distance:  Ob         N            1.223664


  Bond angles (degrees):
  ----------------------

                  atom 1     atom 2     atom 3         angle
                  ------     ------     ------         -----
  bond angle:     C2         C1         C6           118.558
  bond angle:     C2         C1         H5           121.899
  bond angle:     C6         C1         H5           119.544
  bond angle:     C1         C2         C3           120.175
  bond angle:     C1         C2         H1           119.624
  bond angle:     C3         C2         H1           120.201
  bond angle:     C2         C3         C4           120.308
  bond angle:     C2         C3         H2           119.846
  bond angle:     C4         C3         H2           119.846
  bond angle:     C3         C4         C5           120.173
  bond angle:     C3         C4         H3           120.202
  bond angle:     C5         C4         H3           119.626
  bond angle:     C4         C5         C6           118.560
  bond angle:     C4         C5         H4           121.900
  bond angle:     C6         C5         H4           119.540
  bond angle:     C1         C6         C5           122.226
  bond angle:     C1         C6         N            118.888
  bond angle:     C5         C6         N            118.887
  bond angle:     C6         N          Oa           117.584
  bond angle:     C6         N          Ob           117.585
  bond angle:     Oa         N          Ob           124.831




 Principal moments of inertia (u*A**2) and principal axes
 --------------------------------------------------------

   IA     126.930795          0.000000   -0.000000    1.000000
   IB     393.848327          0.000000    1.000000    0.000000
   IC     520.779114          1.000000    0.000000    0.000000


 Rotational constants
 --------------------

@    The molecule is planar.

               A                   B                   C

           3981.5319           1283.1818            970.4287 MHz
            0.132810            0.042802            0.032370 cm-1


@  Nuclear repulsion energy :  412.292741078747 Hartree


                     .---------------------------------------.
                     | Starting in Integral Section (HERMIT) |
                     `---------------------------------------'



 ***************************************************************************************
 ****************** Output from **INTEGRALS input processing (HERMIT) ******************
 ***************************************************************************************


 - Using defaults, no **INTEGRALS input found

 Default print level:        1

 * Nuclear model: Point charge

 Calculation of one-electron Hamiltonian integrals.

 Center of mass  (bohr):      0.000000000000      0.000000000000      0.000000000000
 Operator center (bohr):      0.000000000000      0.000000000000      0.000000000000
 Gauge origin    (bohr):      0.000000000000      0.000000000000      0.000000000000
 Dipole origin   (bohr):      0.000000000000      0.000000000000      0.000000000000


     ************************************************************************
     ************************** Output from HERINT **************************
     ************************************************************************

  Total CPU  time used in HERMIT:   0.06 seconds
  Total wall time used in HERMIT:   0.06 seconds


                        .----------------------------------.
                        | End of Integral Section (HERMIT) |
                        `----------------------------------'



                   .--------------------------------------------.
                   | Starting in Wave Function Section (SIRIUS) |
                   `--------------------------------------------'


 *** Output from Huckel module :

     Using EWMO model:          T
     Using EHT  model:          F
     Number of Huckel orbitals each symmetry:   50

 EWMO - Energy Weighted Maximum Overlap - is a Huckel type method,
        which normally is better than Extended Huckel Theory.
 Reference: Linderberg and Ohrn, Propagators in Quantum Chemistry (Wiley, 1973)

 Huckel EWMO eigenvalues for symmetry :  1
          -20.684973     -20.683624     -15.677412     -11.364913     -11.354591
          -11.354249     -11.347760     -11.347628     -11.344081      -2.025966
           -1.861338      -1.530803      -1.383369      -1.362625      -1.019537
           -0.986977      -0.924384      -0.896487      -0.821334      -0.739037
           -0.672143      -0.665211      -0.605148      -0.585528      -0.572246
           -0.534940      -0.491629      -0.480032      -0.477420      -0.473551
           -0.409819      -0.403823      -0.343893      -0.249359      -0.237974
           -0.223681      -0.197499      -0.179251      -0.167734      -0.133272
           -0.121678      -0.121437      -0.119749      -0.116848      -0.100607
           -0.098836      -0.098364      -0.093445      -0.082545      -0.074449

 **********************************************************************
 *SIRIUS* a direct, restricted step, second order MCSCF program       *
 **********************************************************************

 
     Date and time (Linux)  : Sat Nov 24 14:01:58 2018
     Host name              : Mechanist                               

 Title lines from ".mol" input file:
     nitrobenzene                                                            
     -----------                                                             

 Print level on unit LUPRI =   2 is   0
 Print level on unit LUW4  =   2 is   5

@    Restricted, closed shell Kohn-Sham DFT calculation.

@    Time-dependent Kohn-Sham DFT calculation (TD-DFT).
 Fock matrices are calculated directly without use of integrals on disk.

 Initial molecular orbitals are obtained according to
 ".MOSTART EWMO  " input option

     Wave function specification
     ============================
@    Wave function type        --- KS-DFT ---
@    Number of closed shell electrons          64
@    Number of electrons in active shells       0
@    Total charge of the molecule               0

@    Spin multiplicity and 2 M_S                1         0
@    Total number of symmetries                 1 (point group: C1 )
@    Reference state symmetry                   1 (irrep name : A  )
 
     This is a DFT calculation of type: B3LYP
 Weighted mixed functional:
               HF exchange:    0.20000
                       VWN:    0.19000
                       LYP:    0.81000
                     Becke:    0.72000
                    Slater:    0.80000

     Orbital specifications
     ======================
@    Abelian symmetry species          All |    1
@                                          |  A  
                                       --- |  ---
@    Occupied SCF orbitals              32 |   32
@    Secondary orbitals                 18 |   18
@    Total number of orbitals           50 |   50
@    Number of basis functions          50 |   50

     Optimization information
     ========================
@    Number of configurations                 1
@    Number of orbital rotations            576
     ------------------------------------------
@    Total number of variables              577

     Maximum number of Fock   iterations      0
     Maximum number of DIIS   iterations     60
     Maximum number of QC-SCF iterations     60
     Threshold for SCF convergence     1.00D-05
 
     This is a DFT calculation of type: B3LYP
 Weighted mixed functional:
               HF exchange:    0.20000
                       VWN:    0.19000
                       LYP:    0.81000
                     Becke:    0.72000
                    Slater:    0.80000


 ***********************************************
 ***** DIIS acceleration of SCF iterations *****
 ***********************************************

 C1-DIIS algorithm; max error vectors =    8

 Iter      Total energy        Error norm    Delta(E)  DIIS dim.
 -----------------------------------------------------------------------------
   1  Screening settings (-IFTHRS, JTDIIS, DIFDEN, times)   -7    1    F  8.59D-01  8.68D-01
      K-S energy, electrons, error :    -47.181153905800  63.9999644434   -3.56D-05
@  1    -429.955413316        3.27083D+00   -4.30D+02    1
      Virial theorem: -V/T =      2.010968
@      MULPOP C1      0.19; C2      0.18; C3      0.22; C4      0.18; C5      0.19; C6      0.36; H1     -0.15; H2     -0.15; H3     -0.15; H4     -0.14; 
@             H5     -0.14; N       1.32; Oa     -0.94; Ob     -0.94; 
   1  Level shift: doubly occupied orbital energies shifted by -2.00D-01
 -----------------------------------------------------------------------------
   2  Screening settings (-IFTHRS, JTDIIS, DIFDEN, times)   -7    2    F  8.75D-01  8.67D-01
      K-S energy, electrons, error :    -46.821064089541  63.9999624950   -3.75D-05
@  2    -427.399050534        5.90898D+00    2.56D+00    2
      Virial theorem: -V/T =      2.008093
@      MULPOP C1     -0.49; C2     -0.23; C3     -0.68; C4     -0.23; C5     -0.49; C6     -1.29; H1      0.18; H2      0.18; H3      0.18; H4      0.22; 
@             H5      0.22; N      -1.16; Oa      1.80; Ob      1.80; 
   2  Level shift: doubly occupied orbital energies shifted by -2.00D-01
 -----------------------------------------------------------------------------
   3  Screening settings (-IFTHRS, JTDIIS, DIFDEN, times)   -7    3    F  8.59D-01  8.60D-01
      K-S energy, electrons, error :    -47.077683327025  63.9999639438   -3.61D-05
@  3    -430.735819980        9.60306D-01   -3.34D+00    3
      Virial theorem: -V/T =      2.013688
@      MULPOP C1     -0.10; C2     -0.14; C3      0.05; C4     -0.14; C5     -0.10; C6      0.24; H1      0.13; H2      0.11; H3      0.13; H4      0.12; 
@             H5      0.12; N      -0.36; Oa     -0.03; Ob     -0.03; 
   3  Level shift: doubly occupied orbital energies shifted by -5.00D-02
 -----------------------------------------------------------------------------
   4  Screening settings (-IFTHRS, JTDIIS, DIFDEN, times)   -8    4    F  8.91D-01  8.88D-01
      K-S energy, electrons, error :    -47.050768461955  63.9999639837   -3.60D-05
@  4    -430.800515474        3.51927D-01   -6.47D-02    4
      Virial theorem: -V/T =      2.015021
@      MULPOP C1     -0.09; C2     -0.05; C3     -0.21; C4     -0.05; C5     -0.09; C6     -0.06; H1      0.11; H2      0.13; H3      0.11; H4      0.14; 
@             H5      0.14; N       0.26; Oa     -0.17; Ob     -0.17; 
   4  Level shift: doubly occupied orbital energies shifted by -2.50D-02
 -----------------------------------------------------------------------------
   5  Screening settings (-IFTHRS, JTDIIS, DIFDEN, times)   -8    5    F  8.91D-01  8.88D-01
      K-S energy, electrons, error :    -47.037205403634  63.9999641397   -3.59D-05
@  5    -430.810266493        7.44145D-02   -9.75D-03    5
      Virial theorem: -V/T =      2.015266
@      MULPOP C1     -0.09; C2     -0.09; C3     -0.04; C4     -0.09; C5     -0.09; C6      0.06; H1      0.09; H2      0.08; H3      0.09; H4      0.11; 
@             H5      0.11; N       0.12; Oa     -0.14; Ob     -0.14; 
 -----------------------------------------------------------------------------
   6  Screening settings (-IFTHRS, JTDIIS, DIFDEN, times)   -9    6    F  9.38D-01  9.59D-01
      K-S energy, electrons, error :    -47.042074342523  63.9999641450   -3.59D-05
@  6    -430.810821832        3.77588D-02   -5.55D-04    6
      Virial theorem: -V/T =      2.015188
@      MULPOP C1     -0.07; C2     -0.06; C3     -0.09; C4     -0.06; C5     -0.07; C6      0.06; H1      0.09; H2      0.09; H3      0.09; H4      0.11; 
@             H5      0.11; N       0.12; Oa     -0.15; Ob     -0.15; 
 -----------------------------------------------------------------------------
   7  Screening settings (-IFTHRS, JTDIIS, DIFDEN, times)   -9    7    F  9.06D-01  9.03D-01
      K-S energy, electrons, error :    -47.043506285761  63.9999641399   -3.59D-05
@  7    -430.810934376        1.30418D-02   -1.13D-04    7
      Virial theorem: -V/T =      2.015168
@      MULPOP C1     -0.08; C2     -0.07; C3     -0.07; C4     -0.07; C5     -0.08; C6      0.06; H1      0.09; H2      0.09; H3      0.09; H4      0.11; 
@             H5      0.11; N       0.12; Oa     -0.15; Ob     -0.15; 
 -----------------------------------------------------------------------------
   8  Screening settings (-IFTHRS, JTDIIS, DIFDEN, times)  -10    8    F  9.06D-01  9.13D-01
      K-S energy, electrons, error :    -47.043950912612  63.9999641453   -3.59D-05
@  8    -430.810949184        5.68429D-03   -1.48D-05    8
      Virial theorem: -V/T =      2.015165
@      MULPOP C1     -0.08; C2     -0.07; C3     -0.07; C4     -0.07; C5     -0.08; C6      0.07; H1      0.09; H2      0.09; H3      0.09; H4      0.11; 
@             H5      0.11; N       0.12; Oa     -0.15; Ob     -0.15; 
 -----------------------------------------------------------------------------
   9  Screening settings (-IFTHRS, JTDIIS, DIFDEN, times)  -10    9    F  9.06D-01  9.11D-01
      K-S energy, electrons, error :    -47.043976782656  63.9999641462   -3.59D-05
@  9    -430.810952668        1.07974D-03   -3.48D-06    8
      Virial theorem: -V/T =      2.015166
@      MULPOP C1     -0.08; C2     -0.07; C3     -0.07; C4     -0.07; C5     -0.08; C6      0.06; H1      0.09; H2      0.09; H3      0.09; H4      0.11; 
@             H5      0.11; N       0.12; Oa     -0.15; Ob     -0.15; 
 -----------------------------------------------------------------------------
  10  Screening settings (-IFTHRS, JTDIIS, DIFDEN, times)  -11   10    F  9.06D-01  9.17D-01
      K-S energy, electrons, error :    -47.044016401943  63.9999641463   -3.59D-05
@ 10    -430.810952489        1.87322D-03    1.79D-07    8
      Virial theorem: -V/T =      2.015165
@      MULPOP C1     -0.08; C2     -0.07; C3     -0.07; C4     -0.07; C5     -0.08; C6      0.06; H1      0.09; H2      0.09; H3      0.09; H4      0.11; 
@             H5      0.11; N       0.12; Oa     -0.15; Ob     -0.15; 
 -----------------------------------------------------------------------------
  11  Screening settings (-IFTHRS, JTDIIS, DIFDEN, times)  -11   11    F  9.06D-01  9.18D-01
      K-S energy, electrons, error :    -47.044019853999  63.9999641463   -3.59D-05
@ 11    -430.810952763        2.09634D-04   -2.73D-07    8
      Virial theorem: -V/T =      2.015165
@      MULPOP C1     -0.08; C2     -0.07; C3     -0.07; C4     -0.07; C5     -0.08; C6      0.06; H1      0.09; H2      0.09; H3      0.09; H4      0.11; 
@             H5      0.11; N       0.12; Oa     -0.15; Ob     -0.15; 
 -----------------------------------------------------------------------------
  12  Screening settings (-IFTHRS, JTDIIS, DIFDEN, times)  -11   12    F  9.22D-01  9.17D-01
      K-S energy, electrons, error :    -47.044021722771  63.9999641462   -3.59D-05
@ 12    -430.810952765        7.03649D-05   -2.83D-09    8
      Virial theorem: -V/T =      2.015165
@      MULPOP C1     -0.08; C2     -0.07; C3     -0.07; C4     -0.07; C5     -0.08; C6      0.06; H1      0.09; H2      0.09; H3      0.09; H4      0.11; 
@             H5      0.11; N       0.12; Oa     -0.15; Ob     -0.15; 
 -----------------------------------------------------------------------------
  13  Screening settings (-IFTHRS, JTDIIS, DIFDEN, times)  -11   13    F  9.22D-01  9.22D-01
      K-S energy, electrons, error :    -47.044020230626  63.9999641462   -3.59D-05
@ 13    -430.810952766        8.29329D-06   -4.67D-10    8

@ *** DIIS converged in  13 iterations !
@     Converged SCF energy, gradient:   -430.810952765817    8.29D-06
    - total time used in SIRFCK :              0.00 seconds


 *** SCF orbital energy analysis ***

 Number of electrons :   64
 Orbital occupations :   32

 Sym       Kohn-Sham orbital energies

1 A     -18.88126694   -18.88122282   -14.40846582   -10.06369766   -10.03395116
        -10.03393389   -10.03058035   -10.03025096   -10.02960221    -1.16306815
         -0.97648957    -0.84118471    -0.75239275    -0.72788389    -0.64362611
         -0.58780248    -0.54479124    -0.49127251    -0.45906108    -0.43761334
         -0.43164275    -0.42212329    -0.40531887    -0.37721030    -0.33960515
         -0.33680595    -0.32152534    -0.22065671    -0.21928933    -0.16345746
         -0.16192453    -0.14779775     0.02875567     0.06850343     0.10538621
          0.24071858     0.26047861     0.35329174     0.37975351     0.42493678
          0.44813231     0.44891054     0.45636964     0.51936327     0.55440426
          0.57948201     0.58078315     0.63175043     0.75085409     0.79368649

    E(LUMO) :     0.02875567 au (symmetry 1)
  - E(HOMO) :    -0.14779775 au (symmetry 1)
  ------------------------------------------
    gap     :     0.17655341 au

 --- Writing SIRIFC interface file

 CPU and wall time for SCF :      41.688      41.877


                       .-----------------------------------.
                       | --- Final results from SIRIUS --- |
                       `-----------------------------------'


@    Spin multiplicity:           1
@    Spatial symmetry:            1 ( irrep  A   in C1  )
@    Total charge of molecule:    0

@    Final DFT energy:           -430.810952765817                 
@    Nuclear repulsion:           412.292741078747
@    Electronic energy:          -843.103693844564

@    Final gradient norm:           0.000008293292

 
     Date and time (Linux)  : Sat Nov 24 14:02:39 2018
     Host name              : Mechanist                               

File label for MO orbitals:  24Nov18   FOCKDIIS

 (Only coefficients > 0.0100 are printed.)

 Molecular orbitals for symmetry species 1  (A  )
 ------------------------------------------------

    Orbital         1        2        3        4        5        6        7
   1 C1  :1s     0.0000   0.0000  -0.0000  -0.0105  -0.7404   0.6518   0.0559
   2 C1  :1s     0.0001  -0.0001   0.0003  -0.0101  -0.0339   0.0303  -0.0031
   6 C2  :1s     0.0000  -0.0000   0.0000  -0.0007   0.0600  -0.0644   0.5430
   7 C2  :1s    -0.0001   0.0000  -0.0000   0.0004   0.0098  -0.0094   0.0301
  11 C3  :1s    -0.0000  -0.0000   0.0000  -0.0011  -0.0003   0.0046  -0.6167
  12 C3  :1s     0.0000   0.0000   0.0000  -0.0002  -0.0001   0.0020  -0.0383
  16 C4  :1s     0.0000   0.0000   0.0000  -0.0007  -0.0516  -0.0715   0.5460
  17 C4  :1s    -0.0001  -0.0000  -0.0000   0.0004  -0.0085  -0.0106   0.0303
  21 C5  :1s     0.0000  -0.0000  -0.0000  -0.0105   0.6530   0.7393   0.0562
  22 C5  :1s     0.0001   0.0001   0.0003  -0.0101   0.0298   0.0343  -0.0031
  26 C6  :1s     0.0000   0.0000   0.0006   0.9905  -0.0010   0.0166   0.0014
  27 C6  :1s     0.0003   0.0000  -0.0061   0.0437   0.0008  -0.0131  -0.0006
  36 N   :1s     0.0008   0.0000   0.9925   0.0009   0.0000  -0.0000   0.0000
  37 N   :1s    -0.0102  -0.0001   0.0351  -0.0070  -0.0000   0.0004  -0.0000
  41 Oa  :1s     0.7084  -0.6968   0.0008   0.0000   0.0000   0.0000   0.0000
  42 Oa  :1s     0.0199  -0.0193  -0.0068   0.0001  -0.0001  -0.0000  -0.0000
  46 Ob  :1s     0.6968   0.7084   0.0008   0.0000  -0.0000   0.0000   0.0000
  47 Ob  :1s     0.0196   0.0196  -0.0068   0.0001   0.0001  -0.0000  -0.0000

    Orbital         8        9       10       11       12       13       14
   1 C1  :1s    -0.0569   0.0405  -0.0054  -0.0060  -0.1070   0.0306   0.1313
   2 C1  :1s     0.0042  -0.0022   0.0126   0.0134   0.2663  -0.0822  -0.3492
   4 C1  :2py    0.0001   0.0001  -0.0058  -0.0015  -0.0655   0.0502  -0.0080
   5 C1  :2pz    0.0044  -0.0027  -0.0058  -0.0075   0.0195   0.0994  -0.0624
   6 C2  :1s    -0.6990   0.4360  -0.0006  -0.0008  -0.0938  -0.0873   0.1258
   7 C2  :1s    -0.0308   0.0120   0.0015   0.0024   0.2323   0.2282  -0.3348
   9 C2  :2py    0.0009   0.0037  -0.0001   0.0000  -0.0487  -0.0620  -0.0141
  10 C2  :2pz    0.0003  -0.0025  -0.0010  -0.0014  -0.0357   0.0492   0.0690
  11 C3  :1s     0.0020   0.7751  -0.0003  -0.0000  -0.0899  -0.1345   0.0000
  12 C3  :1s     0.0001   0.0266   0.0006   0.0000   0.2231   0.3528  -0.0000
  14 C3  :2py    0.0076  -0.0000  -0.0000   0.0005   0.0000  -0.0000  -0.1259
  15 C3  :2pz   -0.0000   0.0017  -0.0003  -0.0000  -0.0576  -0.0409   0.0000
  16 C4  :1s     0.6974   0.4348  -0.0006   0.0008  -0.0938  -0.0873  -0.1258
  17 C4  :1s     0.0307   0.0119   0.0015  -0.0023   0.2323   0.2282   0.3348
  19 C4  :2py    0.0008  -0.0037   0.0001   0.0000   0.0487   0.0620  -0.0141
  20 C4  :2pz   -0.0003  -0.0025  -0.0010   0.0014  -0.0357   0.0492  -0.0690
  21 C5  :1s     0.0568   0.0405  -0.0054   0.0060  -0.1070   0.0306  -0.1313
  22 C5  :1s    -0.0042  -0.0022   0.0126  -0.0134   0.2663  -0.0821   0.3492
  24 C5  :2py    0.0001  -0.0001   0.0058  -0.0015   0.0655  -0.0502  -0.0080
  25 C5  :2pz   -0.0043  -0.0027  -0.0058   0.0075   0.0195   0.0994   0.0624
  26 C6  :1s    -0.0000   0.0025  -0.0290  -0.0000  -0.1280   0.1340  -0.0000
  27 C6  :1s     0.0000  -0.0005   0.0571   0.0000   0.3226  -0.3589   0.0000
  29 C6  :2py    0.0005  -0.0000  -0.0000   0.0204   0.0000  -0.0000  -0.1484
  30 C6  :2pz   -0.0000  -0.0005  -0.0347  -0.0000   0.0466   0.0686  -0.0000
  31 H1  :1s     0.0064  -0.0039   0.0001   0.0002   0.0396   0.0538  -0.0885
  32 H2  :1s    -0.0000  -0.0070   0.0001   0.0000   0.0380   0.0840  -0.0000
  33 H3  :1s    -0.0064  -0.0039   0.0001  -0.0002   0.0396   0.0538   0.0885
  34 H4  :1s    -0.0003  -0.0004   0.0033  -0.0078   0.0455  -0.0236   0.0910
  35 H5  :1s     0.0003  -0.0004   0.0033   0.0078   0.0455  -0.0237  -0.0910
  36 N   :1s    -0.0000   0.0000  -0.1817   0.0000  -0.0114   0.0440  -0.0000
  37 N   :1s    -0.0000  -0.0001   0.5505  -0.0000   0.0433  -0.1664   0.0000
  39 N   :2py    0.0001  -0.0000   0.0000   0.3693  -0.0000   0.0000   0.0104
  40 N   :2pz    0.0000  -0.0001  -0.0865   0.0000   0.1295  -0.2658   0.0000
  41 Oa  :1s    -0.0000   0.0000  -0.1134  -0.1536   0.0245  -0.0462  -0.0098
  42 Oa  :1s     0.0000  -0.0000   0.3573   0.5256  -0.0897   0.1776   0.0383
  44 Oa  :2py    0.0000  -0.0000  -0.1280  -0.1187   0.0241  -0.0347  -0.0089
  45 Oa  :2pz    0.0000  -0.0000   0.0650   0.0826   0.0086  -0.0322  -0.0031
  46 Ob  :1s     0.0000   0.0000  -0.1134   0.1536   0.0245  -0.0462   0.0099
  47 Ob  :1s    -0.0000  -0.0000   0.3573  -0.5256  -0.0896   0.1776  -0.0383
  49 Ob  :2py    0.0000   0.0000   0.1280  -0.1187  -0.0241   0.0347  -0.0089
  50 Ob  :2pz   -0.0000  -0.0000   0.0650  -0.0826   0.0086  -0.0322   0.0031

    Orbital        15       16       17       18       19       20       21
   1 C1  :1s     0.0897   0.0960   0.0168  -0.0351   0.0000  -0.0453  -0.0101
   2 C1  :1s    -0.2496  -0.2782  -0.0556   0.1229  -0.0001   0.1540   0.0368
   3 C1  :2px    0.0000   0.0000  -0.0000   0.0000   0.0744   0.0000   0.0001
   4 C1  :2py    0.0001   0.0061  -0.2233   0.1395  -0.0001   0.0795   0.1917
   5 C1  :2pz   -0.0415   0.1497  -0.0951  -0.1945  -0.0001  -0.0522   0.2363
   6 C2  :1s    -0.0018  -0.1040   0.0699   0.0374  -0.0000   0.0412   0.0065
   7 C2  :1s     0.0082   0.3024  -0.2173  -0.1107   0.0000  -0.1386  -0.0219
   8 C2  :2px   -0.0000   0.0000  -0.0000   0.0000   0.0284  -0.0000   0.0000
   9 C2  :2py   -0.0692   0.0098  -0.2036   0.0923  -0.0000  -0.0360   0.1519
  10 C2  :2pz    0.1482   0.1256   0.0400   0.1106   0.0001  -0.0396  -0.2563
  11 C3  :1s    -0.1218   0.0000  -0.0711  -0.0503   0.0000  -0.0360   0.0000
  12 C3  :1s     0.3433  -0.0000   0.2090   0.1687  -0.0000   0.1248  -0.0000
  13 C3  :2px   -0.0000   0.0000  -0.0000  -0.0000   0.0184  -0.0000  -0.0000
  14 C3  :2py    0.0000   0.2270  -0.0000  -0.0000   0.0001  -0.0001  -0.3034
  15 C3  :2pz    0.0465  -0.0000   0.0038   0.2898   0.0000   0.1718  -0.0000
  16 C4  :1s    -0.0017   0.1040   0.0699   0.0374   0.0000   0.0412  -0.0065
  17 C4  :1s     0.0082  -0.3024  -0.2173  -0.1107  -0.0000  -0.1386   0.0219
  18 C4  :2px    0.0000  -0.0000   0.0000  -0.0000   0.0284  -0.0000   0.0000
  19 C4  :2py    0.0692   0.0098   0.2036  -0.0923  -0.0000   0.0360   0.1519
  20 C4  :2pz    0.1482  -0.1256   0.0401   0.1106  -0.0001  -0.0395   0.2563
  21 C5  :1s     0.0897  -0.0960   0.0168  -0.0351  -0.0000  -0.0453   0.0101
  22 C5  :1s    -0.2496   0.2782  -0.0556   0.1229   0.0001   0.1540  -0.0369
  23 C5  :2px    0.0000  -0.0000   0.0000  -0.0000   0.0744  -0.0000   0.0001
  24 C5  :2py   -0.0001   0.0061   0.2233  -0.1395  -0.0001  -0.0795   0.1917
  25 C5  :2pz   -0.0415  -0.1497  -0.0951  -0.1945   0.0001  -0.0523  -0.2363
  26 C6  :1s    -0.0142  -0.0000  -0.0823  -0.0151  -0.0000   0.0289  -0.0000
  27 C6  :1s     0.0454   0.0000   0.2419   0.0487   0.0000  -0.1017   0.0000
  28 C6  :2px   -0.0000  -0.0000   0.0000  -0.0000   0.2077  -0.0000   0.0001
  29 C6  :2py   -0.0000  -0.2560   0.0000  -0.0000   0.0001  -0.0001  -0.3369
  30 C6  :2pz   -0.2355   0.0000   0.2110  -0.0285   0.0000   0.1111  -0.0000
  31 H1  :1s     0.0079   0.1467  -0.1709   0.0386   0.0000  -0.1031  -0.0076
  32 H2  :1s     0.1341  -0.0000   0.0862   0.2584  -0.0000   0.1873  -0.0000
  33 H3  :1s     0.0079  -0.1467  -0.1709   0.0386  -0.0000  -0.1031   0.0077
  34 H4  :1s    -0.0754   0.1362  -0.0973   0.1990   0.0000   0.1164  -0.0533
  35 H5  :1s    -0.0754  -0.1362  -0.0973   0.1990  -0.0000   0.1164   0.0533
  36 N   :1s    -0.0836   0.0000   0.0582   0.0687   0.0000  -0.0657   0.0000
  37 N   :1s     0.3318  -0.0000  -0.2420  -0.2974  -0.0000   0.2888  -0.0000
  38 N   :2px   -0.0000  -0.0001   0.0000   0.0000   0.7254   0.0000   0.0003
  39 N   :2py    0.0000  -0.0090   0.0000  -0.0000   0.0002  -0.0000  -0.1644
  40 N   :2pz    0.3107  -0.0000  -0.1363   0.0581   0.0000  -0.3746   0.0001
  41 Oa  :1s     0.0607  -0.0174  -0.0416  -0.0627   0.0000   0.0976  -0.0429
  42 Oa  :1s    -0.2494   0.0732   0.1802   0.2842  -0.0000  -0.4524   0.2005
  43 Oa  :2px   -0.0000  -0.0000  -0.0000  -0.0000   0.3058   0.0001   0.0001
  44 Oa  :2py    0.0077  -0.0120   0.0233   0.1360   0.0001  -0.2898   0.0657
  45 Oa  :2pz    0.0627  -0.0205  -0.0558  -0.0194   0.0000  -0.0108  -0.1009
  46 Ob  :1s     0.0607   0.0174  -0.0416  -0.0627  -0.0000   0.0977   0.0429
  47 Ob  :1s    -0.2494  -0.0732   0.1802   0.2842   0.0000  -0.4525  -0.2004
  48 Ob  :2px    0.0000  -0.0000   0.0000   0.0000   0.3058  -0.0001   0.0001
  49 Ob  :2py   -0.0077  -0.0120  -0.0233  -0.1360   0.0001   0.2898   0.0656
  50 Ob  :2pz    0.0627   0.0205  -0.0558  -0.0194  -0.0000  -0.0108   0.1009

    Orbital        22       23       24       25       26       27       28
   1 C1  :1s    -0.0231  -0.0212   0.0118   0.0173   0.0000  -0.0029   0.0000
   2 C1  :1s     0.0819   0.0636  -0.0431  -0.0541  -0.0001  -0.0022  -0.0000
   3 C1  :2px    0.0000  -0.0000  -0.0000   0.0003  -0.3246  -0.0001  -0.4653
   4 C1  :2py    0.2065  -0.2526   0.0355   0.0332   0.0001  -0.2792   0.0000
   5 C1  :2pz    0.0100   0.2372   0.0925  -0.3083  -0.0002  -0.0301   0.0000
   6 C2  :1s     0.0179  -0.0221  -0.0009  -0.0099  -0.0000   0.0074  -0.0000
   7 C2  :1s    -0.0684   0.0675   0.0061   0.0433   0.0001  -0.0160   0.0000
   8 C2  :2px   -0.0001  -0.0000   0.0000   0.0003  -0.3314   0.0000  -0.4536
   9 C2  :2py   -0.2596  -0.2219   0.1474  -0.0509  -0.0000   0.2950   0.0001
  10 C2  :2pz   -0.1237  -0.2322  -0.0836   0.3070   0.0003  -0.0070   0.0000
  11 C3  :1s    -0.0475  -0.0000   0.0000  -0.0084  -0.0000  -0.0000   0.0000
  12 C3  :1s     0.1553   0.0000   0.0000   0.0153  -0.0000   0.0000  -0.0000
  13 C3  :2px   -0.0000   0.0000  -0.0000   0.0003  -0.3324  -0.0001   0.0005
  14 C3  :2py   -0.0000   0.0409  -0.1864   0.0000   0.0001  -0.3247  -0.0000
  15 C3  :2pz   -0.2403  -0.0001   0.0000  -0.3724  -0.0003  -0.0000   0.0000
  16 C4  :1s     0.0179   0.0222   0.0009  -0.0099  -0.0000  -0.0074   0.0000
  17 C4  :1s    -0.0684  -0.0675  -0.0061   0.0433   0.0001   0.0161  -0.0000
  18 C4  :2px    0.0000  -0.0000  -0.0000   0.0003  -0.3314  -0.0000   0.4541
  19 C4  :2py    0.2597  -0.2218   0.1474   0.0508   0.0000   0.2950  -0.0000
  20 C4  :2pz   -0.1238   0.2322   0.0836   0.3070   0.0003   0.0071   0.0000
  21 C5  :1s    -0.0231   0.0211  -0.0118   0.0173   0.0000   0.0029  -0.0000
  22 C5  :1s     0.0820  -0.0636   0.0431  -0.0541  -0.0001   0.0022   0.0000
  23 C5  :2px   -0.0000  -0.0000  -0.0000   0.0003  -0.3246  -0.0001   0.4649
  24 C5  :2py   -0.2064  -0.2527   0.0355  -0.0331   0.0000  -0.2792  -0.0001
  25 C5  :2pz    0.0101  -0.2372  -0.0925  -0.3083  -0.0003   0.0300   0.0000
  26 C6  :1s     0.0793   0.0000   0.0000  -0.0280  -0.0000  -0.0000   0.0000
  27 C6  :1s    -0.2670  -0.0001  -0.0000   0.0933   0.0001   0.0000  -0.0000
  28 C6  :2px   -0.0000   0.0000  -0.0000   0.0003  -0.3099  -0.0000  -0.0005
  29 C6  :2py   -0.0000   0.0768  -0.0532  -0.0000  -0.0000   0.3286   0.0000
  30 C6  :2pz   -0.1804  -0.0000  -0.0000   0.0469   0.0000  -0.0000   0.0000
  31 H1  :1s    -0.2576  -0.2226   0.0803   0.1342   0.0001   0.2607   0.0000
  32 H2  :1s    -0.1163  -0.0000   0.0000  -0.3696  -0.0003  -0.0001  -0.0000
  33 H3  :1s    -0.2577   0.2224  -0.0803   0.1343   0.0002  -0.2607  -0.0000
  34 H4  :1s     0.1838   0.2462   0.0525   0.1435   0.0001   0.2356   0.0000
  35 H5  :1s     0.1839  -0.2461  -0.0525   0.1435   0.0001  -0.2355  -0.0000
  36 N   :1s    -0.0030  -0.0000   0.0000   0.0118   0.0000   0.0000  -0.0000
  37 N   :1s     0.0134   0.0000  -0.0000  -0.0580  -0.0001  -0.0000   0.0000
  38 N   :2px    0.0000   0.0000  -0.0001  -0.0002   0.1734   0.0000   0.0001
  39 N   :2py    0.0000   0.0283   0.4695   0.0000   0.0000  -0.1232  -0.0000
  40 N   :2pz    0.1801   0.0000   0.0000  -0.1951  -0.0002  -0.0000  -0.0000
  41 Oa  :1s    -0.0150   0.0011   0.0915   0.0154   0.0000  -0.0218   0.0000
  42 Oa  :1s     0.0723  -0.0077  -0.4423  -0.0742  -0.0000   0.1071  -0.0000
  43 Oa  :2px   -0.0000   0.0000   0.0001  -0.0001   0.1152  -0.0000  -0.0307
  44 Oa  :2py    0.0929  -0.0338  -0.2886  -0.0870  -0.0000   0.0899  -0.0000
  45 Oa  :2pz    0.0595  -0.0087   0.2545  -0.0501  -0.0001  -0.0840   0.0000
  46 Ob  :1s    -0.0150  -0.0011  -0.0915   0.0154   0.0000   0.0218   0.0000
  47 Ob  :1s     0.0723   0.0077   0.4423  -0.0741  -0.0001  -0.1071  -0.0000
  48 Ob  :2px    0.0000   0.0000   0.0001  -0.0001   0.1152  -0.0000   0.0310
  49 Ob  :2py   -0.0929  -0.0338  -0.2886   0.0870   0.0001   0.0899   0.0000
  50 Ob  :2pz    0.0595   0.0087  -0.2545  -0.0501  -0.0000   0.0840   0.0000

    Orbital        29       30       31       32       33       34       35
   1 C1  :1s     0.0000  -0.0000  -0.0053  -0.0132  -0.0000   0.0000  -0.0000
   2 C1  :1s    -0.0000   0.0000   0.0197   0.0594   0.0000  -0.0000   0.0000
   3 C1  :2px   -0.2466  -0.0131   0.0000  -0.0000   0.3215  -0.5658  -0.1344
   4 C1  :2py    0.0000  -0.0001  -0.0790   0.0082  -0.0001   0.0001  -0.0000
   5 C1  :2pz    0.0000  -0.0000  -0.0419  -0.0395  -0.0000   0.0000  -0.0000
   7 C2  :1s    -0.0000  -0.0000  -0.0307  -0.0276  -0.0000  -0.0000   0.0000
   8 C2  :2px    0.2692  -0.0297   0.0001   0.0000   0.1563   0.5747  -0.3250
  10 C2  :2pz   -0.0000   0.0000   0.0555   0.0325  -0.0000  -0.0000   0.0000
  12 C3  :1s     0.0000  -0.0000  -0.0255  -0.0000  -0.0000  -0.0000   0.0000
  13 C3  :2px    0.5244   0.0000  -0.0000   0.0001  -0.4376  -0.0000   0.5266
  14 C3  :2py   -0.0001  -0.0000   0.0000   0.0142   0.0001   0.0000  -0.0001
  17 C4  :1s    -0.0000  -0.0000  -0.0307   0.0276  -0.0000   0.0000   0.0000
  18 C4  :2px    0.2682   0.0297  -0.0001   0.0000   0.1564  -0.5747  -0.3250
  20 C4  :2pz    0.0000   0.0000   0.0555  -0.0325  -0.0000  -0.0000  -0.0000
  21 C5  :1s    -0.0000  -0.0000  -0.0053   0.0132   0.0000  -0.0000   0.0000
  22 C5  :1s     0.0000   0.0000   0.0197  -0.0594  -0.0000   0.0000  -0.0000
  23 C5  :2px   -0.2475   0.0131  -0.0000  -0.0000   0.3214   0.5658  -0.1344
  24 C5  :2py    0.0000   0.0001   0.0790   0.0082  -0.0001  -0.0001  -0.0000
  25 C5  :2pz   -0.0000  -0.0000  -0.0419   0.0395   0.0000  -0.0000   0.0000
  26 C6  :1s    -0.0000   0.0000   0.0495  -0.0000  -0.0000   0.0000   0.0000
  27 C6  :1s     0.0000  -0.0002  -0.2289   0.0000   0.0000  -0.0000  -0.0000
  28 C6  :2px   -0.5242  -0.0000   0.0000  -0.0000  -0.4031   0.0000   0.4893
  30 C6  :2pz    0.0000   0.0002   0.3355  -0.0000  -0.0000  -0.0000   0.0000
  31 H1  :1s    -0.0000   0.0000   0.0424   0.0067   0.0000   0.0000  -0.0000
  33 H3  :1s    -0.0000   0.0000   0.0424  -0.0067   0.0000  -0.0000  -0.0000
  34 H4  :1s     0.0000   0.0000   0.0415  -0.0002  -0.0000  -0.0000  -0.0000
  35 H5  :1s    -0.0000   0.0000   0.0415   0.0002   0.0000   0.0000   0.0000
  37 N   :1s     0.0000   0.0000   0.0174   0.0000  -0.0000   0.0000   0.0000
  38 N   :2px    0.0954  -0.0000   0.0000   0.0000  -0.4222  -0.0000  -0.5542
  40 N   :2pz    0.0000  -0.0000  -0.0547   0.0000  -0.0000   0.0000  -0.0000
  42 Oa  :1s     0.0000  -0.0000  -0.0226  -0.0095  -0.0000  -0.0000   0.0000
  43 Oa  :2px    0.1434   0.7095  -0.0005   0.0001   0.4761   0.0131   0.4069
  44 Oa  :2py    0.0001   0.0003   0.1077  -0.4816   0.0001  -0.0000   0.0001
  45 Oa  :2pz    0.0000   0.0005   0.6520  -0.5297  -0.0000  -0.0000   0.0000
  47 Ob  :1s    -0.0000  -0.0000  -0.0226   0.0095   0.0000  -0.0000  -0.0000
  48 Ob  :2px    0.1433  -0.7095   0.0005   0.0001   0.4761  -0.0131   0.4069
  49 Ob  :2py    0.0001  -0.0003  -0.1077  -0.4816   0.0001   0.0000   0.0001
  50 Ob  :2pz   -0.0000   0.0004   0.6520   0.5297   0.0000  -0.0000  -0.0000

    Orbital        36       37       38       39       40       41       42
   1 C1  :1s    -0.0000  -0.0003  -0.0538   0.0183  -0.1362  -0.0261   0.1444
   2 C1  :1s     0.0000  -0.0152   0.3302  -0.1178   0.8496   0.1534  -0.9239
   3 C1  :2px    0.5217   0.0001  -0.0000  -0.0000  -0.0000   0.0000  -0.0000
   4 C1  :2py    0.0000  -0.1850   0.1311  -0.5044  -0.0035   0.1882  -0.0424
   5 C1  :2pz   -0.0000   0.1335   0.0795   0.0649  -0.4496   0.2198  -0.1495
   6 C2  :1s    -0.0000   0.0389  -0.0397   0.0239   0.0283   0.1407  -0.1265
   7 C2  :1s     0.0001  -0.2252   0.2552  -0.1527  -0.1640  -0.8811   0.8021
   8 C2  :2px   -0.5009  -0.0002   0.0001  -0.0001  -0.0000  -0.0000   0.0000
   9 C2  :2py    0.0001  -0.1149   0.2461  -0.4803  -0.0890   0.0977  -0.0004
  10 C2  :2pz    0.0000   0.1178   0.3943  -0.0874  -0.0391  -0.1994  -0.2346
  11 C3  :1s    -0.0000   0.0187  -0.0573  -0.0000   0.0074  -0.1910   0.0000
  12 C3  :1s     0.0000  -0.1142   0.3606   0.0000  -0.0585   1.1993  -0.0002
  13 C3  :2px    0.4957   0.0001  -0.0001  -0.0000   0.0000   0.0000  -0.0001
  14 C3  :2py   -0.0000   0.0000   0.0000  -0.3362  -0.0001  -0.0001  -0.4014
  15 C3  :2pz    0.0001  -0.0051   0.5600  -0.0000  -0.1766   0.0040   0.0001
  16 C4  :1s    -0.0000   0.0389  -0.0397  -0.0238   0.0283   0.1407   0.1264
  17 C4  :1s     0.0001  -0.2252   0.2553   0.1527  -0.1641  -0.8814  -0.8017
  18 C4  :2px   -0.5009  -0.0001   0.0000  -0.0000   0.0000  -0.0000  -0.0000
  19 C4  :2py    0.0000   0.1149  -0.2461  -0.4803   0.0888  -0.0977  -0.0004
  20 C4  :2pz    0.0000   0.1178   0.3943   0.0874  -0.0390  -0.1994   0.2348
  21 C5  :1s    -0.0000  -0.0003  -0.0537  -0.0182  -0.1363  -0.0262  -0.1444
  22 C5  :1s     0.0001  -0.0151   0.3301   0.1176   0.8498   0.1537   0.9237
  23 C5  :2px    0.5217   0.0002  -0.0001  -0.0000  -0.0000  -0.0000  -0.0000
  24 C5  :2py   -0.0001   0.1850  -0.1312  -0.5045   0.0034  -0.1882  -0.0422
  25 C5  :2pz   -0.0000   0.1335   0.0795  -0.0648  -0.4496   0.2199   0.1495
  26 C6  :1s    -0.0000   0.1185   0.0217  -0.0000   0.1530  -0.0283   0.0000
  27 C6  :1s     0.0002  -0.6529  -0.1163   0.0001  -0.9460   0.1960  -0.0000
  28 C6  :2px   -0.5591  -0.0001   0.0000  -0.0001  -0.0000   0.0000   0.0001
  29 C6  :2py    0.0001   0.0000  -0.0000  -0.3845  -0.0000   0.0001   0.4537
  30 C6  :2pz   -0.0002   0.7193   0.2408   0.0001  -0.2096   0.1283  -0.0000
  31 H1  :1s    -0.0001   0.1991  -0.5587   0.5527   0.1973   0.4624  -0.2874
  32 H2  :1s    -0.0001   0.0594  -0.7843   0.0000   0.1861  -0.6107   0.0000
  33 H3  :1s    -0.0001   0.1991  -0.5588  -0.5527   0.1972   0.4626   0.2871
  34 H4  :1s    -0.0001   0.3222  -0.2463  -0.5407  -0.6668  -0.1338  -0.4222
  35 H5  :1s    -0.0001   0.3222  -0.2462   0.5408  -0.6666  -0.1336   0.4224
  36 N   :1s     0.0000  -0.1422  -0.0409   0.0000  -0.0492   0.0406   0.0000
  37 N   :1s    -0.0002   0.8884   0.2616  -0.0000   0.3189  -0.2641  -0.0001
  38 N   :2px    0.2065   0.0000  -0.0000   0.0001   0.0000  -0.0000  -0.0001
  39 N   :2py    0.0001  -0.0000  -0.0000  -0.1631  -0.0000   0.0001   0.3442
  40 N   :2pz   -0.0001   0.5164   0.1013  -0.0000   0.0233   0.2338   0.0001
  41 Oa  :1s    -0.0000   0.0224   0.0061  -0.0095   0.0114  -0.0220   0.0263
  42 Oa  :1s     0.0000  -0.1350  -0.0405   0.0665  -0.0752   0.1418  -0.1718
  43 Oa  :2px   -0.0980  -0.0001  -0.0000  -0.0000  -0.0000   0.0001  -0.0000
  44 Oa  :2py   -0.0000   0.1803   0.0806  -0.1098   0.1397  -0.2041   0.1605
  45 Oa  :2pz    0.0000  -0.2685  -0.0483   0.0767  -0.0563   0.0512  -0.1887
  46 Ob  :1s    -0.0000   0.0224   0.0061   0.0095   0.0114  -0.0220  -0.0263
  47 Ob  :1s     0.0001  -0.1350  -0.0405  -0.0665  -0.0752   0.1418   0.1719
  48 Ob  :2px   -0.0980   0.0000   0.0000   0.0000   0.0000  -0.0001  -0.0000
  49 Ob  :2py    0.0000  -0.1803  -0.0806  -0.1098  -0.1397   0.2042   0.1606
  50 Ob  :2pz    0.0001  -0.2685  -0.0483  -0.0767  -0.0563   0.0512   0.1887

  Total CPU  time used in SIRIUS :  41.70 seconds
  Total wall time used in SIRIUS :  41.90 seconds

 
     Date and time (Linux)  : Sat Nov 24 14:02:39 2018
     Host name              : Mechanist                               


                     .---------------------------------------.
                     | End of Wave Function Section (SIRIUS) |
                     `---------------------------------------'



                 .------------------------------------------------.
                 | Starting in Dynamic Property Section (RESPONS) |
                 `------------------------------------------------'


 ------------------------------------------------------------------------------
  RESPONSE  -  an MCSCF, MC-srDFT, DFT, and SOPPA response property program
 ------------------------------------------------------------------------------


 -------- OUTPUT FROM RESPONSE INPUT PROCESSING --------




 Variable settings for Cubic Response calculation
 ------------------------------------------------

 Second hyperpolarizability calculation :  CRCAL= T

  1 B-frequencies  0.000000D+00
  1 C-frequencies  0.000000D+00
  1 D-frequencies  0.000000D+00

 Print level                                    : IPRCR  =   2
 Threshold for non-zero norm of property vectors: THRNRM = 1.000D-09
 Threshold for convergence of lin. resp. eq.s   : THCLR  = 1.000D-03
 Maximum number of iterations in LR solver      : MAXITL =  60
 Direct one-index transformation                : DIROIT = T

    3 A OPERATORS OF SYMMETRY NO:    1 AND LABELS:

          XDIPLEN 
          YDIPLEN 
          ZDIPLEN 

    3 B OPERATORS OF SYMMETRY NO:    1 AND LABELS:

          XDIPLEN 
          YDIPLEN 
          ZDIPLEN 

    3 C OPERATORS OF SYMMETRY NO:    1 AND LABELS:

          XDIPLEN 
          YDIPLEN 
          ZDIPLEN 

    3 D OPERATORS OF SYMMETRY NO:    1 AND LABELS:

          XDIPLEN 
          YDIPLEN 
          ZDIPLEN 


   SCF energy         :     -430.810952765817035
 -- inactive part     :     -843.103693844564077
 -- nuclear repulsion :      412.292741078747042


                    *****************************************
                    *** DFT response calculation (TD-DFT) ***
                    *****************************************



 Perturbation symmetry.     KSYMOP:       1
 Perturbation spin symmetry.TRPLET:       F
 Orbital variables.         KZWOPT:     576
 Configuration variables.   KZCONF:       0
 Total number of variables. KZVAR :     576


 ----- Solving linear response equations for cubic response -----
       Symmetry 1  ( A  )
       Number of different response vectors:    3


 CRLRV1 -- linear response calculation for symmetry  1
 CRLRV1 -- operator label : XDIPLEN 
 CRLRV1 -- frequencies :  0.000000



 ---  SOLVING SETS OF LINEAR EQUATIONS FOR LINEAR RESPONSE PROPERTIES ---

 Operator symmetry = 1  ( A  ); triplet =   F


 *** THE REQUESTED    1 SOLUTION VECTORS CONVERGED

 Convergence of RSP solution vectors, threshold = 1.00D-03
 ---------------------------------------------------------------
 (dimension of paired reduced space:   10)
 RSP solution vector no.    1; norm of residual   5.79D-04

 *** RSPCTL MICROITERATIONS CONVERGED

    XDIPLEN       freq            LR value
 -----------------------------------------
              0.000000          8.52557623


 CRLRV1 -- linear response calculation for symmetry  1
 CRLRV1 -- operator label : YDIPLEN 
 CRLRV1 -- frequencies :  0.000000



 ---  SOLVING SETS OF LINEAR EQUATIONS FOR LINEAR RESPONSE PROPERTIES ---

 Operator symmetry = 1  ( A  ); triplet =   F


 *** THE REQUESTED    1 SOLUTION VECTORS CONVERGED

 Convergence of RSP solution vectors, threshold = 1.00D-03
 ---------------------------------------------------------------
 (dimension of paired reduced space:   10)
 RSP solution vector no.    1; norm of residual   9.95D-04

 *** RSPCTL MICROITERATIONS CONVERGED

    YDIPLEN       freq            LR value
 -----------------------------------------
              0.000000         56.69947048


 CRLRV1 -- linear response calculation for symmetry  1
 CRLRV1 -- operator label : ZDIPLEN 
 CRLRV1 -- frequencies :  0.000000



 ---  SOLVING SETS OF LINEAR EQUATIONS FOR LINEAR RESPONSE PROPERTIES ---

 Operator symmetry = 1  ( A  ); triplet =   F


 *** THE REQUESTED    1 SOLUTION VECTORS CONVERGED

 Convergence of RSP solution vectors, threshold = 1.00D-03
 ---------------------------------------------------------------
 (dimension of paired reduced space:   12)
 RSP solution vector no.    1; norm of residual   5.50D-04

 *** RSPCTL MICROITERATIONS CONVERGED

    ZDIPLEN       freq            LR value
 -----------------------------------------
              0.000000         65.30630344
  Time used in CRVEC1     is      1 minute   1 second 
 DFT-QR computed in a linearly-scaling fashion.



 Perturbation symmetry.     KSYMOP:       1
 Perturbation spin symmetry.TRPLET:       F
 Orbital variables.         KZWOPT:     576
 Configuration variables.   KZCONF:       0
 Total number of variables. KZVAR :     576


 CRLRV2 -- linear response calc for sym:  1
 CRLRV2 -- operator label1: XDIPLEN 
 CRLRV2 -- operator label2: XDIPLEN 
 CRLRV2 -- freqr1 :   0.000000D+00
 CRLRV2 -- freqr2 :   0.000000D+00



 ---  SOLVING SETS OF LINEAR EQUATIONS FOR LINEAR RESPONSE PROPERTIES ---

 Operator symmetry = 1  ( A  ); triplet =   F


 *** THE REQUESTED    1 SOLUTION VECTORS CONVERGED

 Convergence of RSP solution vectors, threshold = 1.00D-03
 ---------------------------------------------------------------
 (dimension of paired reduced space:   12)
 RSP solution vector no.    1; norm of residual   4.69D-04

 *** RSPCTL MICROITERATIONS CONVERGED
    XDIPLEN     XDIPLEN      freq1     freq2                Norm
 ---------------------------------------------------------------
                          0.000000  0.000000          1.92988468


 Perturbation symmetry.     KSYMOP:       1
 Perturbation spin symmetry.TRPLET:       F
 Orbital variables.         KZWOPT:     576
 Configuration variables.   KZCONF:       0
 Total number of variables. KZVAR :     576


 CRLRV2 -- linear response calc for sym:  1
 CRLRV2 -- operator label1: YDIPLEN 
 CRLRV2 -- operator label2: XDIPLEN 
 CRLRV2 -- freqr1 :   0.000000D+00
 CRLRV2 -- freqr2 :   0.000000D+00



 ---  SOLVING SETS OF LINEAR EQUATIONS FOR LINEAR RESPONSE PROPERTIES ---

 Operator symmetry = 1  ( A  ); triplet =   F


 *** THE REQUESTED    1 SOLUTION VECTORS CONVERGED

 Convergence of RSP solution vectors, threshold = 1.00D-03
 ---------------------------------------------------------------
 (dimension of paired reduced space:    8)
 RSP solution vector no.    1; norm of residual   6.88D-04

 *** RSPCTL MICROITERATIONS CONVERGED
    YDIPLEN     XDIPLEN      freq1     freq2                Norm
 ---------------------------------------------------------------
                          0.000000  0.000000          9.00207573


 Perturbation symmetry.     KSYMOP:       1
 Perturbation spin symmetry.TRPLET:       F
 Orbital variables.         KZWOPT:     576
 Configuration variables.   KZCONF:       0
 Total number of variables. KZVAR :     576


 CRLRV2 -- linear response calc for sym:  1
 CRLRV2 -- operator label1: ZDIPLEN 
 CRLRV2 -- operator label2: XDIPLEN 
 CRLRV2 -- freqr1 :   0.000000D+00
 CRLRV2 -- freqr2 :   0.000000D+00



 ---  SOLVING SETS OF LINEAR EQUATIONS FOR LINEAR RESPONSE PROPERTIES ---

 Operator symmetry = 1  ( A  ); triplet =   F


 *** THE REQUESTED    1 SOLUTION VECTORS CONVERGED

 Convergence of RSP solution vectors, threshold = 1.00D-03
 ---------------------------------------------------------------
 (dimension of paired reduced space:    8)
 RSP solution vector no.    1; norm of residual   7.73D-04

 *** RSPCTL MICROITERATIONS CONVERGED
    ZDIPLEN     XDIPLEN      freq1     freq2                Norm
 ---------------------------------------------------------------
                          0.000000  0.000000         13.51393202


 Perturbation symmetry.     KSYMOP:       1
 Perturbation spin symmetry.TRPLET:       F
 Orbital variables.         KZWOPT:     576
 Configuration variables.   KZCONF:       0
 Total number of variables. KZVAR :     576


 CRLRV2 -- linear response calc for sym:  1
 CRLRV2 -- operator label1: YDIPLEN 
 CRLRV2 -- operator label2: YDIPLEN 
 CRLRV2 -- freqr1 :   0.000000D+00
 CRLRV2 -- freqr2 :   0.000000D+00



 ---  SOLVING SETS OF LINEAR EQUATIONS FOR LINEAR RESPONSE PROPERTIES ---

 Operator symmetry = 1  ( A  ); triplet =   F


 *** THE REQUESTED    1 SOLUTION VECTORS CONVERGED

 Convergence of RSP solution vectors, threshold = 1.00D-03
 ---------------------------------------------------------------
 (dimension of paired reduced space:   10)
 RSP solution vector no.    1; norm of residual   7.02D-04

 *** RSPCTL MICROITERATIONS CONVERGED
    YDIPLEN     YDIPLEN      freq1     freq2                Norm
 ---------------------------------------------------------------
                          0.000000  0.000000         19.99288659


 Perturbation symmetry.     KSYMOP:       1
 Perturbation spin symmetry.TRPLET:       F
 Orbital variables.         KZWOPT:     576
 Configuration variables.   KZCONF:       0
 Total number of variables. KZVAR :     576


 CRLRV2 -- linear response calc for sym:  1
 CRLRV2 -- operator label1: ZDIPLEN 
 CRLRV2 -- operator label2: YDIPLEN 
 CRLRV2 -- freqr1 :   0.000000D+00
 CRLRV2 -- freqr2 :   0.000000D+00



 ---  SOLVING SETS OF LINEAR EQUATIONS FOR LINEAR RESPONSE PROPERTIES ---

 Operator symmetry = 1  ( A  ); triplet =   F


 *** THE REQUESTED    1 SOLUTION VECTORS CONVERGED

 Convergence of RSP solution vectors, threshold = 1.00D-03
 ---------------------------------------------------------------
 (dimension of paired reduced space:   12)
 RSP solution vector no.    1; norm of residual   1.51D-04

 *** RSPCTL MICROITERATIONS CONVERGED
    ZDIPLEN     YDIPLEN      freq1     freq2                Norm
 ---------------------------------------------------------------
                          0.000000  0.000000         26.57564489


 Perturbation symmetry.     KSYMOP:       1
 Perturbation spin symmetry.TRPLET:       F
 Orbital variables.         KZWOPT:     576
 Configuration variables.   KZCONF:       0
 Total number of variables. KZVAR :     576


 CRLRV2 -- linear response calc for sym:  1
 CRLRV2 -- operator label1: ZDIPLEN 
 CRLRV2 -- operator label2: ZDIPLEN 
 CRLRV2 -- freqr1 :   0.000000D+00
 CRLRV2 -- freqr2 :   0.000000D+00



 ---  SOLVING SETS OF LINEAR EQUATIONS FOR LINEAR RESPONSE PROPERTIES ---

 Operator symmetry = 1  ( A  ); triplet =   F


 *** THE REQUESTED    1 SOLUTION VECTORS CONVERGED

 Convergence of RSP solution vectors, threshold = 1.00D-03
 ---------------------------------------------------------------
 (dimension of paired reduced space:   10)
 RSP solution vector no.    1; norm of residual   8.03D-04

 *** RSPCTL MICROITERATIONS CONVERGED
    ZDIPLEN     ZDIPLEN      freq1     freq2                Norm
 ---------------------------------------------------------------
                          0.000000  0.000000         91.01285760
  Time used in CRVEC2     is      2 minutes 31 seconds


 ----- CALCULATING CONTRIBUTIONS TO SECOND HYPERPOLARIZABILITY -----


   Contribution                Term         Accumulated
 ------------------------------------------------------
Contribution from C4FOCK:     33.424605044076
 
 DFT-CR uses full matrix multipication code.
 DFT-CR integration time:     138.38 s
Contribution from DFTCRCS:                -3.7
 Na T[4] Nb Nc Nd      -29.76771329        -29.76771329
 Na T[3] Nx Nyz          7.04357174        -22.72414155
 Na X[3] Ny Nz          58.12483163         35.40069008
 Nx A[3] Ny Nz          19.37494388         54.77563396
 Na X[2] Nyz           -13.58816859         41.18746537
 Nx A[2] Nyz           -13.58816859         27.59929679

@ Cubic response function value in a.u. for
@ A operator, symmetry, frequency:   XDIPLEN    1 -0.000000
@ B operator, symmetry, frequency:   XDIPLEN    1  0.000000
@ C operator, symmetry, frequency:   XDIPLEN    1  0.000000
@ D operator, symmetry, frequency:   XDIPLEN    1  0.000000

@ << A; B, C, D >>  =          27.59929679


 Component YDIPLEN , XDIPLEN , XDIPLEN , XDIPLEN 
   not calculated because it does not contribute to average gamma

 Component ZDIPLEN , XDIPLEN , XDIPLEN , XDIPLEN 
   not calculated because it does not contribute to average gamma

 Component XDIPLEN , YDIPLEN , XDIPLEN , XDIPLEN 
   not calculated because it does not contribute to average gamma


   Contribution                Term         Accumulated
 ------------------------------------------------------
Contribution from C4FOCK:     88.940706824257
 DFT-CR integration time:     137.66 s
Contribution from DFTCRCS:                -6.7
 Na T[4] Nb Nc Nd      -82.23591436        -82.23591436
 Na T[3] Nx Nyz        134.50246968         52.26655532
 Na X[3] Ny Nz         113.40411116        165.67066649
 Nx A[3] Ny Nz          34.59031824        200.26098473
 Na X[2] Nyz          -140.91479338         59.34619135
 Nx A[2] Nyz          -169.04010754       -109.69391619

@ Cubic response function value in a.u. for
@ A operator, symmetry, frequency:   YDIPLEN    1 -0.000000
@ B operator, symmetry, frequency:   YDIPLEN    1  0.000000
@ C operator, symmetry, frequency:   XDIPLEN    1  0.000000
@ D operator, symmetry, frequency:   XDIPLEN    1  0.000000

@ << A; B, C, D >>  =        -109.69391619


 Component ZDIPLEN , YDIPLEN , XDIPLEN , XDIPLEN 
   not calculated because it does not contribute to average gamma

 Component XDIPLEN , ZDIPLEN , XDIPLEN , XDIPLEN 
   not calculated because it does not contribute to average gamma

 Component YDIPLEN , ZDIPLEN , XDIPLEN , XDIPLEN 
   not calculated because it does not contribute to average gamma


   Contribution                Term         Accumulated
 ------------------------------------------------------
Contribution from C4FOCK:    126.566305117529
 DFT-CR integration time:     138.02 s
Contribution from DFTCRCS:               -11.1
 Na T[4] Nb Nc Nd     -115.49140782       -115.49140782
 Na T[3] Nx Nyz        176.27706608         60.78565825
 Na X[3] Ny Nz         179.47390910        240.25956735
 Nx A[3] Ny Nz          41.09884106        281.35840842
 Na X[2] Nyz          -235.70407149         45.65433693
 Nx A[2] Nyz          -253.69591145       -208.04157452

@ Cubic response function value in a.u. for
@ A operator, symmetry, frequency:   ZDIPLEN    1 -0.000000
@ B operator, symmetry, frequency:   ZDIPLEN    1  0.000000
@ C operator, symmetry, frequency:   XDIPLEN    1  0.000000
@ D operator, symmetry, frequency:   XDIPLEN    1  0.000000

@ << A; B, C, D >>  =        -208.04157452


 Component XDIPLEN , XDIPLEN , YDIPLEN , XDIPLEN 
   not calculated because it does not contribute to average gamma

 Component ZDIPLEN , XDIPLEN , YDIPLEN , XDIPLEN 
   not calculated because it does not contribute to average gamma

 Component YDIPLEN , YDIPLEN , YDIPLEN , XDIPLEN 
   not calculated because it does not contribute to average gamma

 Component ZDIPLEN , YDIPLEN , YDIPLEN , XDIPLEN 
   not calculated because it does not contribute to average gamma

 Component XDIPLEN , ZDIPLEN , YDIPLEN , XDIPLEN 
   not calculated because it does not contribute to average gamma

 Component YDIPLEN , ZDIPLEN , YDIPLEN , XDIPLEN 
   not calculated because it does not contribute to average gamma

 Component ZDIPLEN , ZDIPLEN , YDIPLEN , XDIPLEN 
   not calculated because it does not contribute to average gamma

 Component XDIPLEN , XDIPLEN , ZDIPLEN , XDIPLEN 
   not calculated because it does not contribute to average gamma

 Component YDIPLEN , XDIPLEN , ZDIPLEN , XDIPLEN 
   not calculated because it does not contribute to average gamma

 Component XDIPLEN , YDIPLEN , ZDIPLEN , XDIPLEN 
   not calculated because it does not contribute to average gamma

 Component YDIPLEN , YDIPLEN , ZDIPLEN , XDIPLEN 
   not calculated because it does not contribute to average gamma

 Component ZDIPLEN , YDIPLEN , ZDIPLEN , XDIPLEN 
   not calculated because it does not contribute to average gamma

 Component YDIPLEN , ZDIPLEN , ZDIPLEN , XDIPLEN 
   not calculated because it does not contribute to average gamma

 Component ZDIPLEN , ZDIPLEN , ZDIPLEN , XDIPLEN 
   not calculated because it does not contribute to average gamma

 Component XDIPLEN , XDIPLEN , XDIPLEN , YDIPLEN 
   not calculated because it does not contribute to average gamma

 Component ZDIPLEN , XDIPLEN , XDIPLEN , YDIPLEN 
   not calculated because it does not contribute to average gamma

 Component YDIPLEN , YDIPLEN , XDIPLEN , YDIPLEN 
   not calculated because it does not contribute to average gamma

 Component ZDIPLEN , YDIPLEN , XDIPLEN , YDIPLEN 
   not calculated because it does not contribute to average gamma

 Component XDIPLEN , ZDIPLEN , XDIPLEN , YDIPLEN 
   not calculated because it does not contribute to average gamma

 Component YDIPLEN , ZDIPLEN , XDIPLEN , YDIPLEN 
   not calculated because it does not contribute to average gamma

 Component ZDIPLEN , ZDIPLEN , XDIPLEN , YDIPLEN 
   not calculated because it does not contribute to average gamma

 Component YDIPLEN , XDIPLEN , YDIPLEN , YDIPLEN 
   not calculated because it does not contribute to average gamma

 Component ZDIPLEN , XDIPLEN , YDIPLEN , YDIPLEN 
   not calculated because it does not contribute to average gamma

 Component XDIPLEN , YDIPLEN , YDIPLEN , YDIPLEN 
   not calculated because it does not contribute to average gamma


   Contribution                Term         Accumulated
 ------------------------------------------------------
Contribution from C4FOCK:   2110.759141759124
 DFT-CR integration time:     141.45 s
Contribution from DFTCRCS:              -176.3
 Na T[4] Nb Nc Nd    -1934.41099843      -1934.41099843
 Na T[3] Nx Nyz       1373.91253432       -560.49846411
 Na X[3] Ny Nz        2103.81852685       1543.32006275
 Nx A[3] Ny Nz         701.27284228       2244.59290503
 Na X[2] Nyz         -1177.62262083       1066.97028420
 Nx A[2] Nyz         -1177.62262083       -110.65233664

@ Cubic response function value in a.u. for
@ A operator, symmetry, frequency:   YDIPLEN    1 -0.000000
@ B operator, symmetry, frequency:   YDIPLEN    1  0.000000
@ C operator, symmetry, frequency:   YDIPLEN    1  0.000000
@ D operator, symmetry, frequency:   YDIPLEN    1  0.000000

@ << A; B, C, D >>  =        -110.65233664


 Component ZDIPLEN , YDIPLEN , YDIPLEN , YDIPLEN 
   not calculated because it does not contribute to average gamma

 Component XDIPLEN , ZDIPLEN , YDIPLEN , YDIPLEN 
   not calculated because it does not contribute to average gamma

 Component YDIPLEN , ZDIPLEN , YDIPLEN , YDIPLEN 
   not calculated because it does not contribute to average gamma


   Contribution                Term         Accumulated
 ------------------------------------------------------
Contribution from C4FOCK:   1192.086395326452
 DFT-CR integration time:     142.62 s
Contribution from DFTCRCS:               -96.2
 Na T[4] Nb Nc Nd    -1095.86539637      -1095.86539637
 Na T[3] Nx Nyz        678.67834813       -417.18704824
 Na X[3] Ny Nz        1315.80872455        898.62167630
 Nx A[3] Ny Nz         320.66455721       1219.28623351
 Na X[2] Nyz          -611.83033535        607.45589816
 Nx A[2] Nyz          -610.76953231         -3.31363414

@ Cubic response function value in a.u. for
@ A operator, symmetry, frequency:   ZDIPLEN    1 -0.000000
@ B operator, symmetry, frequency:   ZDIPLEN    1  0.000000
@ C operator, symmetry, frequency:   YDIPLEN    1  0.000000
@ D operator, symmetry, frequency:   YDIPLEN    1  0.000000

@ << A; B, C, D >>  =          -3.31363414


 Component XDIPLEN , XDIPLEN , ZDIPLEN , YDIPLEN 
   not calculated because it does not contribute to average gamma

 Component YDIPLEN , XDIPLEN , ZDIPLEN , YDIPLEN 
   not calculated because it does not contribute to average gamma

 Component ZDIPLEN , XDIPLEN , ZDIPLEN , YDIPLEN 
   not calculated because it does not contribute to average gamma

 Component XDIPLEN , YDIPLEN , ZDIPLEN , YDIPLEN 
   not calculated because it does not contribute to average gamma

 Component YDIPLEN , YDIPLEN , ZDIPLEN , YDIPLEN 
   not calculated because it does not contribute to average gamma

 Component XDIPLEN , ZDIPLEN , ZDIPLEN , YDIPLEN 
   not calculated because it does not contribute to average gamma

 Component ZDIPLEN , ZDIPLEN , ZDIPLEN , YDIPLEN 
   not calculated because it does not contribute to average gamma

 Component XDIPLEN , XDIPLEN , XDIPLEN , ZDIPLEN 
   not calculated because it does not contribute to average gamma

 Component YDIPLEN , XDIPLEN , XDIPLEN , ZDIPLEN 
   not calculated because it does not contribute to average gamma

 Component XDIPLEN , YDIPLEN , XDIPLEN , ZDIPLEN 
   not calculated because it does not contribute to average gamma

 Component YDIPLEN , YDIPLEN , XDIPLEN , ZDIPLEN 
   not calculated because it does not contribute to average gamma

 Component ZDIPLEN , YDIPLEN , XDIPLEN , ZDIPLEN 
   not calculated because it does not contribute to average gamma

 Component YDIPLEN , ZDIPLEN , XDIPLEN , ZDIPLEN 
   not calculated because it does not contribute to average gamma

 Component ZDIPLEN , ZDIPLEN , XDIPLEN , ZDIPLEN 
   not calculated because it does not contribute to average gamma

 Component XDIPLEN , XDIPLEN , YDIPLEN , ZDIPLEN 
   not calculated because it does not contribute to average gamma

 Component YDIPLEN , XDIPLEN , YDIPLEN , ZDIPLEN 
   not calculated because it does not contribute to average gamma

 Component ZDIPLEN , XDIPLEN , YDIPLEN , ZDIPLEN 
   not calculated because it does not contribute to average gamma

 Component XDIPLEN , YDIPLEN , YDIPLEN , ZDIPLEN 
   not calculated because it does not contribute to average gamma

 Component YDIPLEN , YDIPLEN , YDIPLEN , ZDIPLEN 
   not calculated because it does not contribute to average gamma

 Component XDIPLEN , ZDIPLEN , YDIPLEN , ZDIPLEN 
   not calculated because it does not contribute to average gamma

 Component ZDIPLEN , ZDIPLEN , YDIPLEN , ZDIPLEN 
   not calculated because it does not contribute to average gamma

 Component YDIPLEN , XDIPLEN , ZDIPLEN , ZDIPLEN 
   not calculated because it does not contribute to average gamma

 Component ZDIPLEN , XDIPLEN , ZDIPLEN , ZDIPLEN 
   not calculated because it does not contribute to average gamma

 Component XDIPLEN , YDIPLEN , ZDIPLEN , ZDIPLEN 
   not calculated because it does not contribute to average gamma

 Component ZDIPLEN , YDIPLEN , ZDIPLEN , ZDIPLEN 
   not calculated because it does not contribute to average gamma

 Component XDIPLEN , ZDIPLEN , ZDIPLEN , ZDIPLEN 
   not calculated because it does not contribute to average gamma

 Component YDIPLEN , ZDIPLEN , ZDIPLEN , ZDIPLEN 
   not calculated because it does not contribute to average gamma


   Contribution                Term         Accumulated
 ------------------------------------------------------
Contribution from C4FOCK:   4659.223941853635
 DFT-CR integration time:     142.97 s
Contribution from DFTCRCS:              -337.8
 Na T[4] Nb Nc Nd    -4321.40913516      -4321.40913516
 Na T[3] Nx Nyz       9939.20725639       5617.79812124
 Na X[3] Ny Nz        5554.78983727      11172.58795851
 Nx A[3] Ny Nz        1851.59661242      13024.18457093
 Na X[2] Nyz        -11971.97870458       1052.20586635
 Nx A[2] Nyz        -11971.97870458     -10919.77283823

@ Cubic response function value in a.u. for
@ A operator, symmetry, frequency:   ZDIPLEN    1 -0.000000
@ B operator, symmetry, frequency:   ZDIPLEN    1  0.000000
@ C operator, symmetry, frequency:   ZDIPLEN    1  0.000000
@ D operator, symmetry, frequency:   ZDIPLEN    1  0.000000

@ << A; B, C, D >>  =      -10919.77283823



  Summary of gamma values for a set of frequencies
 -------------------------------------------------

@ B-freq:  0.000000
@ C-freq:  0.000000
@ D-freq:  0.000000

@ gamma(X;X,X,X)        -27.5993
@ gamma(X;X,Y,Y)        109.6939
@ gamma(X;Y,Y,X)        109.6939
@ gamma(X;Y,X,Y)        109.6939
@ gamma(X;X,Z,Z)        208.0416
@ gamma(X;Z,Z,X)        208.0416
@ gamma(X;Z,X,Z)        208.0416
@ gamma(Y;Y,X,X)        109.6939
@ gamma(Y;X,X,Y)        109.6939
@ gamma(Y;X,Y,X)        109.6939
@ gamma(Y;Y,Y,Y)        110.6523
@ gamma(Y;Y,Z,Z)          3.3136
@ gamma(Y;Z,Z,Y)          3.3136
@ gamma(Y;Z,Y,Z)          3.3136
@ gamma(Z;Z,X,X)        208.0416
@ gamma(Z;X,X,Z)        208.0416
@ gamma(Z;X,Z,X)        208.0416
@ gamma(Z;Z,Y,Y)          3.3136
@ gamma(Z;Y,Y,Z)          3.3136
@ gamma(Z;Y,Z,Y)          3.3136
@ gamma(Z;Z,Z,Z)      10919.7728

@ Averaged gamma parallel to the applied field is      2328.984826

  Total CPU  time used in RESPONSE: 18 minutes 33 seconds
  Total wall time used in RESPONSE: 18 minutes 39 seconds


                   .-------------------------------------------.
                   | End of Dynamic Property Section (RESPONS) |
                   `-------------------------------------------'

  Total CPU  time used in DALTON: 19 minutes 15 seconds
  Total wall time used in DALTON: 19 minutes 21 seconds

 
     Date and time (Linux)  : Sat Nov 24 14:21:18 2018
     Host name              : Mechanist                               
