

     ************************************************************************
     *************** Dalton - An Electronic Structure Program ***************
     ************************************************************************

    This is output from DALTON release Dalton2018.1 (2019)
         ( Web site: http://daltonprogram.org )

   ----------------------------------------------------------------------------

    NOTE:
     
    Dalton is an experimental code for the evaluation of molecular
    properties using (MC)SCF, DFT, CI, and CC wave functions.
    The authors accept no responsibility for the performance of
    the code or for the correctness of the results.
     
    The code (in whole or part) is provided under a licence and
    is not to be reproduced for further distribution without
    the written permission of the authors or their representatives.
     
    See the home page "http://daltonprogram.org" for further information.
     
    If results obtained with this code are published,
    the appropriate citations would be both of:
     
       K. Aidas, C. Angeli, K. L. Bak, V. Bakken, R. Bast,
       L. Boman, O. Christiansen, R. Cimiraglia, S. Coriani,
       P. Dahle, E. K. Dalskov, U. Ekstroem,
       T. Enevoldsen, J. J. Eriksen, P. Ettenhuber, B. Fernandez,
       L. Ferrighi, H. Fliegl, L. Frediani, K. Hald, A. Halkier,
       C. Haettig, H. Heiberg, T. Helgaker, A. C. Hennum,
       H. Hettema, E. Hjertenaes, S. Hoest, I.-M. Hoeyvik,
       M. F. Iozzi, B. Jansik, H. J. Aa. Jensen, D. Jonsson,
       P. Joergensen, J. Kauczor, S. Kirpekar,
       T. Kjaergaard, W. Klopper, S. Knecht, R. Kobayashi, H. Koch,
       J. Kongsted, A. Krapp, K. Kristensen, A. Ligabue,
       O. B. Lutnaes, J. I. Melo, K. V. Mikkelsen, R. H. Myhre,
       C. Neiss, C. B. Nielsen, P. Norman, J. Olsen,
       J. M. H. Olsen, A. Osted, M. J. Packer, F. Pawlowski,
       T. B. Pedersen, P. F. Provasi, S. Reine, Z. Rinkevicius,
       T. A. Ruden, K. Ruud, V. Rybkin, P. Salek, C. C. M. Samson,
       A. Sanchez de Meras, T. Saue, S. P. A. Sauer,
       B. Schimmelpfennig, K. Sneskov, A. H. Steindal,
       K. O. Sylvester-Hvid, P. R. Taylor, A. M. Teale,
       E. I. Tellgren, D. P. Tew, A. J. Thorvaldsen, L. Thoegersen,
       O. Vahtras, M. A. Watson, D. J. D. Wilson, M. Ziolkowski
       and H. Agren,
       "The Dalton quantum chemistry program system",
       WIREs Comput. Mol. Sci. 2014, 4:269–284 (doi: 10.1002/wcms.1172)
     
    and
     
       Dalton, a molecular electronic structure program,
       Release Dalton2018.1 (2019), see http://daltonprogram.org
   ----------------------------------------------------------------------------

    Authors in alphabetical order (major contribution(s) in parenthesis):

  Kestutis Aidas,           Vilnius University,           Lithuania   (QM/MM)
  Celestino Angeli,         University of Ferrara,        Italy       (NEVPT2)
  Keld L. Bak,              UNI-C,                        Denmark     (AOSOPPA, non-adiabatic coupling, magnetic properties)
  Vebjoern Bakken,          University of Oslo,           Norway      (DALTON; geometry optimizer, symmetry detection)
  Radovan Bast,             UiT The Arctic U. of Norway,  Norway      (DALTON installation and execution frameworks)
  Pablo Baudin,             University of Valencia,       Spain       (Cholesky excitation energies)
  Linus Boman,              NTNU,                         Norway      (Cholesky decomposition and subsystems)
  Ove Christiansen,         Aarhus University,            Denmark     (CC module)
  Renzo Cimiraglia,         University of Ferrara,        Italy       (NEVPT2)
  Sonia Coriani,            Technical Univ. of Denmark,   Denmark     (CC module, MCD in RESPONS)
  Janusz Cukras,            University of Trieste,        Italy       (MChD in RESPONS)
  Paal Dahle,               University of Oslo,           Norway      (Parallelization)
  Erik K. Dalskov,          UNI-C,                        Denmark     (SOPPA)
  Thomas Enevoldsen,        Univ. of Southern Denmark,    Denmark     (SOPPA)
  Janus J. Eriksen,         Aarhus University,            Denmark     (Polarizable embedding model, TDA)
  Rasmus Faber,             University of Copenhagen,     Denmark     (Vib.avg. NMR with SOPPA, parallel AO-SOPPA)
  Tobias Fahleson,          KTH Stockholm,                Sweden      (Damped cubic response)
  Berta Fernandez,          U. of Santiago de Compostela, Spain       (doublet spin, ESR in RESPONS)
  Lara Ferrighi,            Aarhus University,            Denmark     (PCM Cubic response)
  Heike Fliegl,             University of Oslo,           Norway      (CCSD(R12))
  Luca Frediani,            UiT The Arctic U. of Norway,  Norway      (PCM)
  Bin Gao,                  UiT The Arctic U. of Norway,  Norway      (Gen1Int library)
  Christof Haettig,         Ruhr-University Bochum,       Germany     (CC module)
  Kasper Hald,              Aarhus University,            Denmark     (CC module)
  Asger Halkier,            Aarhus University,            Denmark     (CC module)
  Frederik Beyer Hansen,    University of Copenhagen,     Denmark     (Parallel AO-SOPPA)
  Erik D. Hedegaard,        Univ. of Southern Denmark,    Denmark     (Polarizable embedding model, QM/MM)
  Hanne Heiberg,            University of Oslo,           Norway      (geometry analysis, selected one-electron integrals)
  Trygve Helgaker,          University of Oslo,           Norway      (DALTON; ABACUS, ERI, DFT modules, London, and much more)
  Alf Christian Hennum,     University of Oslo,           Norway      (Parity violation)
  Hinne Hettema,            University of Auckland,       New Zealand (quadratic response in RESPONS; SIRIUS supersymmetry)
  Eirik Hjertenaes,         NTNU,                         Norway      (Cholesky decomposition)
  Pi A. B. Haase,           University of Copenhagen,     Denmark     (Triplet AO-SOPPA)
  Maria Francesca Iozzi,    University of Oslo,           Norway      (RPA)
  Christoph Jacob           TU Braunschweig               Germany     (Frozen density embedding model)
  Brano Jansik              Technical Univ. of Ostrava    Czech Rep.  (DFT cubic response)
  Hans Joergen Aa. Jensen,  Univ. of Southern Denmark,    Denmark     (DALTON; SIRIUS, RESPONS, ABACUS modules, London, and much more)
  Dan Jonsson,              UiT The Arctic U. of Norway,  Norway      (cubic response in RESPONS module)
  Poul Joergensen,          Aarhus University,            Denmark     (RESPONS, ABACUS, and CC modules)
  Maciej Kaminski,          University of Warsaw,         Poland      (CPPh in RESPONS)
  Joanna Kauczor,           Linkoeping University,        Sweden      (Complex polarization propagator (CPP) module)
  Sheela Kirpekar,          Univ. of Southern Denmark,    Denmark     (Mass-velocity & Darwin integrals)
  Wim Klopper,              KIT Karlsruhe,                Germany     (R12 code in CC, SIRIUS, and ABACUS modules)
  Stefan Knecht,            ETH Zurich,                   Switzerland (Parallel CI and MCSCF)
  Rika Kobayashi,           Australian National Univ.,    Australia   (DIIS in CC, London in MCSCF)
  Henrik Koch,              NTNU,                         Norway      (CC module, Cholesky decomposition)
  Jacob Kongsted,           Univ. of Southern Denmark,    Denmark     (Polarizable embedding model, QM/MM)
  Andrea Ligabue,           University of Modena,         Italy       (CTOCD, AOSOPPA)
  Nanna H. List             Univ. of Southern Denmark,    Denmark     (Polarizable embedding model)
  Ola B. Lutnaes,           University of Oslo,           Norway      (DFT Hessian)
  Juan I. Melo,             University of Buenos Aires,   Argentina   (LRESC, Relativistic Effects on NMR Shieldings)
  Kurt V. Mikkelsen,        University of Copenhagen,     Denmark     (MC-SCRF and QM/MM)
  Rolf H. Myhre,            NTNU,                         Norway      (Subsystems and CC3)
  Christian Neiss,          Univ. Erlangen-Nuernberg,     Germany     (CCSD(R12))
  Christian B. Nielsen,     University of Copenhagen,     Denmark     (QM/MM)
  Patrick Norman,           KTH Stockholm,                Sweden      (Cubic response and complex frequency response in RESPONS)
  Jeppe Olsen,              Aarhus University,            Denmark     (SIRIUS CI/density modules)
  Jogvan Magnus H. Olsen,   Univ. of Southern Denmark,    Denmark     (Polarizable embedding model, QM/MM)
  Anders Osted,             Copenhagen University,        Denmark     (QM/MM)
  Martin J. Packer,         University of Sheffield,      UK          (SOPPA)
  Filip Pawlowski,          Kazimierz Wielki University,  Poland      (CC3)
  Morten N. Pedersen,       Univ. of Southern Denmark,    Denmark     (Polarizable embedding model)
  Thomas B. Pedersen,       University of Oslo,           Norway      (Cholesky decomposition)
  Patricio F. Provasi,      University of Northeastern,   Argentina   (Analysis of coupling constants in localized orbitals)
  Zilvinas Rinkevicius,     KTH Stockholm,                Sweden      (open-shell DFT, ESR)
  Elias Rudberg,            KTH Stockholm,                Sweden      (DFT grid and basis info)
  Torgeir A. Ruden,         University of Oslo,           Norway      (Numerical derivatives in ABACUS)
  Kenneth Ruud,             UiT The Arctic U. of Norway,  Norway      (DALTON; ABACUS magnetic properties and much more)
  Pawel Salek,              KTH Stockholm,                Sweden      (DALTON; DFT code)
  Claire C. M. Samson       University of Karlsruhe       Germany     (Boys localization, r12 integrals in ERI)
  Alfredo Sanchez de Meras, University of Valencia,       Spain       (CC module, Cholesky decomposition)
  Trond Saue,               Paul Sabatier University,     France      (direct Fock matrix construction)
  Stephan P. A. Sauer,      University of Copenhagen,     Denmark     (SOPPA(CCSD), SOPPA prop., AOSOPPA, vibrational g-factors)
  Andre S. P. Gomes,        CNRS/Universite de Lille,     France      (Frozen density embedding model)
  Bernd Schimmelpfennig,    Forschungszentrum Karlsruhe,  Germany     (AMFI module)
  Kristian Sneskov,         Aarhus University,            Denmark     (Polarizable embedding model, QM/MM)
  Arnfinn H. Steindal,      UiT The Arctic U. of Norway,  Norway      (parallel QM/MM, Polarizable embedding model)
  Casper Steinmann,         Univ. of Southern Denmark,    Denmark     (QFIT, Polarizable embedding model)
  K. O. Sylvester-Hvid,     University of Copenhagen,     Denmark     (MC-SCRF)
  Peter R. Taylor,          VLSCI/Univ. of Melbourne,     Australia   (Symmetry handling ABACUS, integral transformation)
  Andrew M. Teale,          University of Nottingham,     England     (DFT-AC, DFT-D)
  David P. Tew,             University of Bristol,        England     (CCSD(R12))
  Olav Vahtras,             KTH Stockholm,                Sweden      (triplet response, spin-orbit, ESR, TDDFT, open-shell DFT)
  Lucas Visscher,           Vrije Universiteit Amsterdam, Netherlands (Frozen density embedding model)
  David J. Wilson,          La Trobe University,          Australia   (DFT Hessian and DFT magnetizabilities)
  Hans Agren,               KTH Stockholm,                Sweden      (SIRIUS module, RESPONS, MC-SCRF solvation model)
 --------------------------------------------------------------------------------

     Date and time (Linux)  : Tue Feb 11 23:20:29 2020
     Host name              : Lab2-333-NPs                            

 * Work memory size             :  1024000000 =  7.629 gigabytes.

 * Directories for basis set searches:
   1) /home/lab333/dalton/build_2018_atlas
   2) /home/lab333/dalton/build_2018_atlas/basis


Compilation information
-----------------------

 Who compiled             | lab333
 Host                     | Lab2-333-NPs
 System                   | Linux-4.4.0-43-Microsoft
 CMake generator          | Unix Makefiles
 Processor                | x86_64
 64-bit integers          | OFF
 MPI                      | OFF
 Fortran compiler         | /usr/bin/gfortran
 Fortran compiler version | GNU Fortran (Ubuntu 7.3.0-27ubuntu1~18.04) 7.3.0
 C compiler               | /usr/bin/gcc
 C compiler version       | gcc (Ubuntu 7.3.0-27ubuntu1~18.04) 7.3.0
 C++ compiler             | /usr/bin/g++
 C++ compiler version     | g++ (Ubuntu 7.3.0-27ubuntu1~18.04) 7.3.0
 BLAS                     | /usr/lib/x86_64-linux-gnu/libf77blas.so;/usr/lib/x
                          | 86_64-linux-gnu/libcblas.so;/usr/lib/x86_64-linux-
                          | gnu/libatlas.so
 LAPACK                   | /usr/lib/x86_64-linux-gnu/libatlas.so;/usr/lib/x86
                          | _64-linux-gnu/atlas/liblapack.so
 Static linking           | OFF
 Last Git revision        | da625bf48c74028e805616daee31bc5d76b3a20d
 Git branch               | (HEAD detached at Dalton2018.1)
 Configuration time       | 2019-01-18 10:20:51.437510


   Content of the .dal input file
 ----------------------------------

**DALTON INPUT
.RUN RESPONSE
.DIRECT
**WAVE FUNCTIONS
.HF
.MP2
.MCSCF
*CONFIGURATION INPUT
.SPIN MULTIPLICITY
1
.SYMMETRY
1
.INACTIVE ORBITALS
15 10 2 0
.CAS SPACE
1 1 2 3
.ELECTRONS
10
*ORBITAL INPUT
.MOSTART
.HUCKEL
*OPTIMIZATION
.DETERMINANTS
.STATE
1
*CI VECTOR
.PLUS COMBINATIONS
**RESPONSE
*CUBIC
.DIPLEN
.BFREQ
1
0.0584
.CFREQ
1
-0.0584
.DFREQ
1
0.0584
**END OF DALTON INPUT


   Content of the .mol file
 ----------------------------

BASIS
aug-cc-pCVDZ
 nitrobenzene
 Generated by the Dalton Input File Plugin for Avogadro
Atomtypes=4 Angstrom Generators=2 X Y
Charge=6.0 Atoms=4
C        0.0000000000            0.0000000000           -0.0265759623
C       -1.2190534920            0.0000000000           -0.6979856948
C       -1.2105095870            0.0000000000           -2.0897394457
C        0.0000000000            0.0000000000           -2.7841484631
Charge=7.0 Atoms=1
N        0.0000000000            0.0000000000            1.4549291696
Charge=8.0 Atoms=1
O       1.1004245573672222            0.0            1.9926192638262359
Charge=1.0 Atoms=3
H       -2.1410602955            0.0000000000           -0.1327964319
H       -2.1492827751            0.0000000000           -2.6311811056
H        0.0000000000            0.0000000000           -3.8683953478


       *******************************************************************
       *********** Output from DALTON general input processing ***********
       *******************************************************************

 --------------------------------------------------------------------------------
   Overall default print level:    0
   Print level for DALTON.STAT:    1

    AO-direct calculation (in sections where implemented)
    HERMIT 1- and 2-electron integral sections will be executed
    "Old" integral transformation used (limited to max 255 basis functions)
    Wave function sections will be executed (SIRIUS module)
    Dynamic molecular response properties section will be executed (RESPONSE module)
 --------------------------------------------------------------------------------


   ****************************************************************************
   *************** Output of molecule and basis set information ***************
   ****************************************************************************


    The two title cards from your ".mol" input:
    ------------------------------------------------------------------------
 1:  nitrobenzene                                                           
 2:  Generated by the Dalton Input File Plugin for Avogadro                 
    ------------------------------------------------------------------------

  Coordinates are entered in Angstrom and converted to atomic units.
          - Conversion factor : 1 bohr = 0.52917721 A

  Atomic type no.    1
  --------------------
  Nuclear charge:   6.00000
  Number of symmetry independent centers:    4
  Number of basis sets to read;    2
  Basis set file used for this atomic type with Z =   6 :
     "/home/lab333/dalton/build_2018_atlas/basis/aug-cc-pCVDZ"

  Atomic type no.    2
  --------------------
  Nuclear charge:   7.00000
  Number of symmetry independent centers:    1
  Number of basis sets to read;    2
  Basis set file used for this atomic type with Z =   7 :
     "/home/lab333/dalton/build_2018_atlas/basis/aug-cc-pCVDZ"

  Atomic type no.    3
  --------------------
  Nuclear charge:   8.00000
  Number of symmetry independent centers:    1
  Number of basis sets to read;    2
  Basis set file used for this atomic type with Z =   8 :
     "/home/lab333/dalton/build_2018_atlas/basis/aug-cc-pCVDZ"

  Atomic type no.    4
  --------------------
  Nuclear charge:   1.00000
  Number of symmetry independent centers:    3
  Number of basis sets to read;    2
  Basis set file used for this atomic type with Z =   1 :
     "/home/lab333/dalton/build_2018_atlas/basis/aug-cc-pCVDZ"


                         SYMGRP: Point group information
                         -------------------------------

@    Point group: C2v

@  * The irrep name for each symmetry:    1: A1     2: B1     3: B2     4: A2 

   * The point group was generated by:

      Reflection in the yz-plane
      Reflection in the xz-plane

   * Group multiplication table

        |  E   C2z  Oxz  Oyz
   -----+--------------------
     E  |  E   C2z  Oxz  Oyz
    C2z | C2z   E   Oyz  Oxz
    Oxz | Oxz  Oyz   E   C2z
    Oyz | Oyz  Oxz  C2z   E 

   * Character table

        |  E   C2z  Oxz  Oyz
   -----+--------------------
    A1  |   1    1    1    1
    B1  |   1   -1    1   -1
    B2  |   1   -1   -1    1
    A2  |   1    1   -1   -1

   * Direct product table

        | A1   B1   B2   A2 
   -----+--------------------
    A1  | A1   B1   B2   A2 
    B1  | B1   A1   A2   B2 
    B2  | B2   A2   A1   B1 
    A2  | A2   B2   B1   A1 


                                 Isotopic Masses
                                 ---------------

                           C          12.000000
                           C   _1     12.000000
                           C   _2     12.000000
                           C   _1     12.000000
                           C   _2     12.000000
                           C          12.000000
                           N          14.003074
                           O   _1     15.994915
                           O   _2     15.994915
                           H   _1      1.007825
                           H   _2      1.007825
                           H   _1      1.007825
                           H   _2      1.007825
                           H           1.007825

                       Total mass:   123.032029 amu
                       Natural abundance:  92.716 %

 Center-of-mass coordinates (a.u.):    0.000000    0.000000   -0.399150


  Atoms and basis sets
  --------------------

  Number of atom types :    4
  Total number of atoms:   14

  Basis set used is "aug-cc-pCVDZ" from the basis set library.

  label    atoms   charge   prim   cont     basis
  ----------------------------------------------------------------------
  C           6    6.0000    39    27      [11s6p2d|5s4p2d]                                   
  N           1    7.0000    39    27      [11s6p2d|5s4p2d]                                   
  O           2    8.0000    39    27      [11s6p2d|5s4p2d]                                   
  H           5    1.0000    11     9      [5s2p|3s2p]                                        
  ----------------------------------------------------------------------
  total:     14   64.0000   406   288
  ----------------------------------------------------------------------
  Spherical harmonic basis used.

  Threshold for neglecting AO integrals:  1.00D-12


  Symmetry Coordinates
  --------------------

  Number of coordinates in each symmetry:    14   14    9    5


   Interatomic separations (in Angstrom):
   --------------------------------------

            C           C   _1      C   _2      C   _1      C   _2      C     
            ------      ------      ------      ------      ------      ------
 C     :    0.000000
 C   _1:    1.391719    0.000000
 C   _2:    1.391719    2.438107    0.000000
 C   _1:    2.392065    1.391780    2.799956    0.000000
 C   _2:    2.392065    2.799956    1.391780    2.421019    0.000000
 C     :    2.757573    2.416230    2.416230    1.395542    1.395542    0.000000
 N     :    1.481505    2.474093    2.474093    3.745665    3.745665    4.239078
 O   _1:    2.299583    3.552370    2.693219    4.691063    4.083843    4.901882
 O   _2:    2.299583    2.693219    3.552370    4.083843    4.691063    4.901882
 H   _1:    2.143694    1.081451    3.407316    2.166922    3.881063    3.407904
 H   _2:    2.143694    3.407316    1.081451    3.881063    2.166922    3.407904
 H   _1:    3.376890    2.145360    3.883675    1.083722    3.403140    2.154719
 H   _2:    3.376890    3.883675    2.145360    3.403140    1.083722    2.154719
 H     :    3.841819    3.396703    3.396703    2.151500    2.151500    1.084247

            N           O   _1      O   _2      H   _1      H   _2      H   _1
            ------      ------      ------      ------      ------      ------
 N     :    0.000000
 O   _1:    1.224763    0.000000
 O   _2:    1.224763    2.200849    0.000000
 H   _1:    2.665523    3.876160    2.366498    0.000000
 H   _2:    2.665523    2.366498    3.876160    4.282121    0.000000
 H   _1:    4.616894    5.651560    4.741269    2.498398    4.964773    0.000000
 H   _2:    4.616894    4.741269    5.651560    4.964773    2.498398    4.298566
 H     :    5.323325    5.963424    5.963424    4.305675    4.305675    2.479943

            H   _2      H     
            ------      ------
 H   _2:    0.000000
 H     :    2.479943    0.000000


  Max    interatomic separation is    5.9634 Angstrom (   11.2692 Bohr)
  between atoms   14 and    8, "H     " and "O   _1".

  Min HX interatomic separation is    1.0815 Angstrom (    2.0436 Bohr)

  Min YX interatomic separation is    1.2248 Angstrom (    2.3145 Bohr)


  Bond distances (Angstrom):
  --------------------------

                  atom 1     atom 2       distance
                  ------     ------       --------
  bond distance:  C   _1     C            1.391719
  bond distance:  C   _2     C            1.391719
  bond distance:  C   _1     C   _1       1.391780
  bond distance:  C   _2     C   _2       1.391780
  bond distance:  C          C   _1       1.395542
  bond distance:  C          C   _2       1.395542
  bond distance:  N          C            1.481505
  bond distance:  O   _1     N            1.224763
  bond distance:  O   _2     N            1.224763
  bond distance:  H   _1     C   _1       1.081451
  bond distance:  H   _2     C   _2       1.081451
  bond distance:  H   _1     C   _1       1.083722
  bond distance:  H   _2     C   _2       1.083722
  bond distance:  H          C            1.084247


  Bond angles (degrees):
  ----------------------

                  atom 1     atom 2     atom 3         angle
                  ------     ------     ------         -----
  bond angle:     C   _1     C          C   _2       122.311
  bond angle:     C   _1     C          N            118.844
  bond angle:     C   _2     C          N            118.844
  bond angle:     C          C   _1     C   _1       118.493
  bond angle:     C          C   _1     H   _1       119.647
  bond angle:     C   _1     C   _1     H   _1       121.860
  bond angle:     C          C   _2     C   _2       118.493
  bond angle:     C          C   _2     H   _2       119.647
  bond angle:     C   _2     C   _2     H   _2       121.860
  bond angle:     C   _1     C   _1     C            120.192
  bond angle:     C   _1     C   _1     H   _1       119.623
  bond angle:     C          C   _1     H   _1       120.185
  bond angle:     C   _2     C   _2     C            120.192
  bond angle:     C   _2     C   _2     H   _2       119.623
  bond angle:     C          C   _2     H   _2       120.185
  bond angle:     C   _1     C          C   _2       120.319
  bond angle:     C   _1     C          H            119.841
  bond angle:     C   _2     C          H            119.841
  bond angle:     C          N          O   _1       116.041
  bond angle:     C          N          O   _2       116.041
  bond angle:     O   _1     N          O   _2       127.918




 Principal moments of inertia (u*A**2) and principal axes
 --------------------------------------------------------

   IA     128.122923          0.000000    0.000000    1.000000
   IB     389.768261          1.000000    0.000000    0.000000
   IC     517.891184          0.000000    1.000000    0.000000


 Rotational constants
 --------------------

@    The molecule is planar.

               A                   B                   C

           3944.4854           1296.6141            975.8401 MHz
            0.131574            0.043250            0.032551 cm-1


@  Nuclear repulsion energy :  412.647786818205 Hartree


  Symmetry Orbitals
  -----------------

  Number of orbitals in each symmetry:         115   91   48   34


  Symmetry  A1 ( 1)

    1     C        1s         1
    2     C        1s         2
    3     C        1s         3
    4     C        1s         4
    5     C        1s         5
    6     C        2pz        8
    7     C        2pz       11
    8     C        2pz       14
    9     C        2pz       17
   10     C        3d0       20
   11     C        3d2+      22
   12     C        3d0       25
   13     C        3d2+      27
   14     C        1s        28 +   29
   15     C        1s        30 +   31
   16     C        1s        32 +   33
   17     C        1s        34 +   35
   18     C        1s        36 +   37
   19     C        2px       38 -   39
   20     C        2pz       42 +   43
   21     C        2px       44 -   45
   22     C        2pz       48 +   49
   23     C        2px       50 -   51
   24     C        2pz       54 +   55
   25     C        2px       56 -   57
   26     C        2pz       60 +   61
   27     C        3d0       66 +   67
   28     C        3d1+      68 -   69
   29     C        3d2+      70 +   71
   30     C        3d0       76 +   77
   31     C        3d1+      78 -   79
   32     C        3d2+      80 +   81
   33     C        1s        82 +   83
   34     C        1s        84 +   85
   35     C        1s        86 +   87
   36     C        1s        88 +   89
   37     C        1s        90 +   91
   38     C        2px       92 -   93
   39     C        2pz       96 +   97
   40     C        2px       98 -   99
   41     C        2pz      102 +  103
   42     C        2px      104 -  105
   43     C        2pz      108 +  109
   44     C        2px      110 -  111
   45     C        2pz      114 +  115
   46     C        3d0      120 +  121
   47     C        3d1+     122 -  123
   48     C        3d2+     124 +  125
   49     C        3d0      130 +  131
   50     C        3d1+     132 -  133
   51     C        3d2+     134 +  135
   52     C        1s       136
   53     C        1s       137
   54     C        1s       138
   55     C        1s       139
   56     C        1s       140
   57     C        2pz      143
   58     C        2pz      146
   59     C        2pz      149
   60     C        2pz      152
   61     C        3d0      155
   62     C        3d2+     157
   63     C        3d0      160
   64     C        3d2+     162
   65     N        1s       163
   66     N        1s       164
   67     N        1s       165
   68     N        1s       166
   69     N        1s       167
   70     N        2pz      170
   71     N        2pz      173
   72     N        2pz      176
   73     N        2pz      179
   74     N        3d0      182
   75     N        3d2+     184
   76     N        3d0      187
   77     N        3d2+     189
   78     O        1s       190 +  191
   79     O        1s       192 +  193
   80     O        1s       194 +  195
   81     O        1s       196 +  197
   82     O        1s       198 +  199
   83     O        2px      200 -  201
   84     O        2pz      204 +  205
   85     O        2px      206 -  207
   86     O        2pz      210 +  211
   87     O        2px      212 -  213
   88     O        2pz      216 +  217
   89     O        2px      218 -  219
   90     O        2pz      222 +  223
   91     O        3d0      228 +  229
   92     O        3d1+     230 -  231
   93     O        3d2+     232 +  233
   94     O        3d0      238 +  239
   95     O        3d1+     240 -  241
   96     O        3d2+     242 +  243
   97     H        1s       244 +  245
   98     H        1s       246 +  247
   99     H        1s       248 +  249
  100     H        2px      250 -  251
  101     H        2pz      254 +  255
  102     H        2px      256 -  257
  103     H        2pz      260 +  261
  104     H        1s       262 +  263
  105     H        1s       264 +  265
  106     H        1s       266 +  267
  107     H        2px      268 -  269
  108     H        2pz      272 +  273
  109     H        2px      274 -  275
  110     H        2pz      278 +  279
  111     H        1s       280
  112     H        1s       281
  113     H        1s       282
  114     H        2pz      285
  115     H        2pz      288


  Symmetry  B1 ( 2)

  116     C        2px        6
  117     C        2px        9
  118     C        2px       12
  119     C        2px       15
  120     C        3d1+      21
  121     C        3d1+      26
  122     C        1s        28 -   29
  123     C        1s        30 -   31
  124     C        1s        32 -   33
  125     C        1s        34 -   35
  126     C        1s        36 -   37
  127     C        2px       38 +   39
  128     C        2pz       42 -   43
  129     C        2px       44 +   45
  130     C        2pz       48 -   49
  131     C        2px       50 +   51
  132     C        2pz       54 -   55
  133     C        2px       56 +   57
  134     C        2pz       60 -   61
  135     C        3d0       66 -   67
  136     C        3d1+      68 +   69
  137     C        3d2+      70 -   71
  138     C        3d0       76 -   77
  139     C        3d1+      78 +   79
  140     C        3d2+      80 -   81
  141     C        1s        82 -   83
  142     C        1s        84 -   85
  143     C        1s        86 -   87
  144     C        1s        88 -   89
  145     C        1s        90 -   91
  146     C        2px       92 +   93
  147     C        2pz       96 -   97
  148     C        2px       98 +   99
  149     C        2pz      102 -  103
  150     C        2px      104 +  105
  151     C        2pz      108 -  109
  152     C        2px      110 +  111
  153     C        2pz      114 -  115
  154     C        3d0      120 -  121
  155     C        3d1+     122 +  123
  156     C        3d2+     124 -  125
  157     C        3d0      130 -  131
  158     C        3d1+     132 +  133
  159     C        3d2+     134 -  135
  160     C        2px      141
  161     C        2px      144
  162     C        2px      147
  163     C        2px      150
  164     C        3d1+     156
  165     C        3d1+     161
  166     N        2px      168
  167     N        2px      171
  168     N        2px      174
  169     N        2px      177
  170     N        3d1+     183
  171     N        3d1+     188
  172     O        1s       190 -  191
  173     O        1s       192 -  193
  174     O        1s       194 -  195
  175     O        1s       196 -  197
  176     O        1s       198 -  199
  177     O        2px      200 +  201
  178     O        2pz      204 -  205
  179     O        2px      206 +  207
  180     O        2pz      210 -  211
  181     O        2px      212 +  213
  182     O        2pz      216 -  217
  183     O        2px      218 +  219
  184     O        2pz      222 -  223
  185     O        3d0      228 -  229
  186     O        3d1+     230 +  231
  187     O        3d2+     232 -  233
  188     O        3d0      238 -  239
  189     O        3d1+     240 +  241
  190     O        3d2+     242 -  243
  191     H        1s       244 -  245
  192     H        1s       246 -  247
  193     H        1s       248 -  249
  194     H        2px      250 +  251
  195     H        2pz      254 -  255
  196     H        2px      256 +  257
  197     H        2pz      260 -  261
  198     H        1s       262 -  263
  199     H        1s       264 -  265
  200     H        1s       266 -  267
  201     H        2px      268 +  269
  202     H        2pz      272 -  273
  203     H        2px      274 +  275
  204     H        2pz      278 -  279
  205     H        2px      283
  206     H        2px      286


  Symmetry  B2 ( 3)

  207     C        2py        7
  208     C        2py       10
  209     C        2py       13
  210     C        2py       16
  211     C        3d1-      19
  212     C        3d1-      24
  213     C        2py       40 +   41
  214     C        2py       46 +   47
  215     C        2py       52 +   53
  216     C        2py       58 +   59
  217     C        3d2-      62 -   63
  218     C        3d1-      64 +   65
  219     C        3d2-      72 -   73
  220     C        3d1-      74 +   75
  221     C        2py       94 +   95
  222     C        2py      100 +  101
  223     C        2py      106 +  107
  224     C        2py      112 +  113
  225     C        3d2-     116 -  117
  226     C        3d1-     118 +  119
  227     C        3d2-     126 -  127
  228     C        3d1-     128 +  129
  229     C        2py      142
  230     C        2py      145
  231     C        2py      148
  232     C        2py      151
  233     C        3d1-     154
  234     C        3d1-     159
  235     N        2py      169
  236     N        2py      172
  237     N        2py      175
  238     N        2py      178
  239     N        3d1-     181
  240     N        3d1-     186
  241     O        2py      202 +  203
  242     O        2py      208 +  209
  243     O        2py      214 +  215
  244     O        2py      220 +  221
  245     O        3d2-     224 -  225
  246     O        3d1-     226 +  227
  247     O        3d2-     234 -  235
  248     O        3d1-     236 +  237
  249     H        2py      252 +  253
  250     H        2py      258 +  259
  251     H        2py      270 +  271
  252     H        2py      276 +  277
  253     H        2py      284
  254     H        2py      287


  Symmetry  A2 ( 4)

  255     C        3d2-      18
  256     C        3d2-      23
  257     C        2py       40 -   41
  258     C        2py       46 -   47
  259     C        2py       52 -   53
  260     C        2py       58 -   59
  261     C        3d2-      62 +   63
  262     C        3d1-      64 -   65
  263     C        3d2-      72 +   73
  264     C        3d1-      74 -   75
  265     C        2py       94 -   95
  266     C        2py      100 -  101
  267     C        2py      106 -  107
  268     C        2py      112 -  113
  269     C        3d2-     116 +  117
  270     C        3d1-     118 -  119
  271     C        3d2-     126 +  127
  272     C        3d1-     128 -  129
  273     C        3d2-     153
  274     C        3d2-     158
  275     N        3d2-     180
  276     N        3d2-     185
  277     O        2py      202 -  203
  278     O        2py      208 -  209
  279     O        2py      214 -  215
  280     O        2py      220 -  221
  281     O        3d2-     224 +  225
  282     O        3d1-     226 -  227
  283     O        3d2-     234 +  235
  284     O        3d1-     236 -  237
  285     H        2py      252 -  253
  286     H        2py      258 -  259
  287     H        2py      270 -  271
  288     H        2py      276 -  277

  Symmetries of electric field:  B1 (2)  B2 (3)  A1 (1)

  Symmetries of magnetic field:  B2 (3)  B1 (2)  A2 (4)


                     .---------------------------------------.
                     | Starting in Integral Section (HERMIT) |
                     `---------------------------------------'



 ***************************************************************************************
 ****************** Output from **INTEGRALS input processing (HERMIT) ******************
 ***************************************************************************************


 - Using defaults, no **INTEGRALS input found

 Default print level:        1

 Calculation of one-electron Hamiltonian integrals.

 Center of mass  (bohr):      0.000000000000      0.000000000000     -0.399149731458
 Operator center (bohr):      0.000000000000      0.000000000000      0.000000000000
 Gauge origin    (bohr):      0.000000000000      0.000000000000      0.000000000000
 Dipole origin   (bohr):      0.000000000000      0.000000000000      0.000000000000


     ************************************************************************
     ************************** Output from HERINT **************************
     ************************************************************************



                      Nuclear contribution to dipole moments
                      --------------------------------------

                 au               Debye          C m (/(10**-30)

      z    -33.34797095       -84.76208203      -282.73587199


  Time used in GABGEN     is       0.12 seconds
  Total CPU  time used in HERMIT:   0.44 seconds
  Total wall time used in HERMIT:   0.43 seconds


                        .----------------------------------.
                        | End of Integral Section (HERMIT) |
                        `----------------------------------'



                   .--------------------------------------------.
                   | Starting in Wave Function Section (SIRIUS) |
                   `--------------------------------------------'


 *** Output from Huckel module :

     Using EWMO model:          F
     Using EHT  model:          T
     Number of Huckel orbitals each symmetry:   24   17    6    3

 Huckel EHT eigenvalues for symmetry :  1
          -20.695293     -15.706037     -11.415011     -11.394605     -11.376753
          -11.362600      -1.749085      -1.553996      -1.193024      -0.939943
           -0.816389      -0.785843      -0.641941      -0.588047      -0.490737
           -0.428482      -0.331103      -0.247534      -0.225981      -0.213747
           -0.205816      -0.178739      -0.166289      -0.160474

 Huckel EHT eigenvalues for symmetry :  2
          -20.701226     -11.396477     -11.377859      -1.406740      -1.202753
           -0.879402      -0.645842      -0.573482      -0.526365      -0.478479
           -0.414733      -0.269053      -0.213148      -0.202811      -0.176231
           -0.165370      -0.163258

 Huckel EHT eigenvalues for symmetry :  3
           -0.800399      -0.671116      -0.465009      -0.384602      -0.281797
           -0.236543

 Huckel EHT eigenvalues for symmetry :  4
           -0.594137      -0.460082      -0.288816

 **********************************************************************
 *SIRIUS* a direct, restricted step, second order MCSCF program       *
 **********************************************************************

 
     Date and time (Linux)  : Tue Feb 11 23:20:29 2020
     Host name              : Lab2-333-NPs                            

 Title lines from ".mol" input file:
      nitrobenzene                                                           
      Generated by the Dalton Input File Plugin for Avogadro                 

 Print level on unit LUPRI =   2 is   0
 Print level on unit LUW4  =   2 is   5

@    MC-SCF optimization.

@    Multi-configurational response calculation.
@              Type: complete active space calculation (CAS).

@    This is a combination run starting with
@              a restricted, closed shell Hartree-Fock calculation
@              an MP2 calculation

 Fock matrices are calculated directly without use of integrals on disk.

 Initial molecular orbitals are obtained according to
 ".MOSTART EHT   " input option

     Wave function specification
     ============================
@    Wave function type        --- MC-SCF ---
@    Number of closed shell electrons          54
@    Number of electrons in active shells      10
@    Total charge of the molecule               0

@    Spin multiplicity and 2 M_S                1         0
@    Total number of symmetries                 4 (point group: C2v)
@    Reference state symmetry                   1 (irrep name : A1 )

     Orbital specifications
     ======================
@    Abelian symmetry species          All |    1    2    3    4
@                                          |  A1   B1   B2   A2 
                                       --- |  ---  ---  ---  ---
@    Inactive orbitals                  27 |   15   10    2    0
@    Active orbitals                     7 |    1    1    2    3
@    Secondary orbitals                254 |   99   80   44   31
@    Total number of orbitals          288 |  115   91   48   34
@    Number of basis functions         288 |  115   91   48   34

      ** Automatic occupation of RHF orbitals **

      -- Initial occupation of symmetries is determined from extended Huckel guess.           
      -- Initial occupation of symmetries is :
@    Occupied SCF orbitals              32 |   16   11    3    2

     Optimization information
     ========================
@    Number of determinants                 115
@    Number of orbital rotations           2762
     ------------------------------------------
@    Total number of variables             2877

     Maximum number of macro iterations      25
     Maximum number of micro iterations     600
     Threshold for MCSCF gradient      1.00D-05
     Number of initial trial vectors          1
     Number of initial CI iterations          3
     Number of simultaneous trial vectors     1

@    This calculation converges to the lowest state for the specified symmetry and spin species.

     Maximum number of NEO/NR iterations  24

    INFORMATION: Switched to "new" integral transformation (from 1988 ;-) )
    because more than 255 basis functions.


 ***********************************************
 ***** DIIS acceleration of SCF iterations *****
 ***********************************************

 C1-DIIS algorithm; max error vectors =    8

 Automatic occupation of symmetries with  64 electrons.

 Iter     Total energy    Error norm  Delta(E)    SCF occupation
 -----------------------------------------------------------------------------
   1  Screening settings (-IFTHRS, JTDIIS, DIFDEN, times)   -8    1    T  2.90D+01  2.91D+01
@  1  -432.264520201       6.46D+00  -4.32D+02    16  11   3   2
      Virial theorem: -V/T =      1.998665
@    MULPOP   C       0.33; C   _1  0.26; C   _2  0.26; C   _1  0.23; C   _2  0.23; C       0.36; N       1.31; O   _1 -1.02; O   _2 -1.02; H   _1 -0.20; 
@             H   _2 -0.20; H   _1 -0.18; H   _2 -0.18; H      -0.19; 
   1  Level shift: doubly occupied orbital energies shifted by -2.00D-01
 -----------------------------------------------------------------------------
   2  Screening settings (-IFTHRS, JTDIIS, DIFDEN, times)   -8    2    T  2.82D+01  2.82D+01
@  2  -433.845734170       2.91D+00  -1.58D+00    16  11   3   2
      Virial theorem: -V/T =      2.001465
@    MULPOP   C       0.89; C   _1  0.36; C   _2  0.36; C   _1  0.36; C   _2  0.36; C       0.36; N       0.36; O   _1 -0.52; O   _2 -0.52; H   _1 -0.40; 
@             H   _2 -0.40; H   _1 -0.40; H   _2 -0.40; H      -0.40; 
   2  Level shift: doubly occupied orbital energies shifted by -1.00D-01
 -----------------------------------------------------------------------------
   3  Screening settings (-IFTHRS, JTDIIS, DIFDEN, times)   -8    3    T  2.84D+01  2.84D+01
@  3  -434.206303993       7.13D-01  -3.61D-01    16  11   3   2
      Virial theorem: -V/T =      2.000874
@    MULPOP   C       1.62; C   _1  0.26; C   _2  0.26; C   _1  0.44; C   _2  0.44; C       0.29; N       0.69; O   _1 -0.89; O   _2 -0.89; H   _1 -0.46; 
@             H   _2 -0.46; H   _1 -0.44; H   _2 -0.44; H      -0.44; 
   3  Level shift: doubly occupied orbital energies shifted by -2.50D-02
 -----------------------------------------------------------------------------
   4  Screening settings (-IFTHRS, JTDIIS, DIFDEN, times)   -8    4    T  2.92D+01  2.92D+01
@  4  -434.231673219       1.84D-01  -2.54D-02    16  11   3   2
      Virial theorem: -V/T =      2.002645
@    MULPOP   C       1.70; C   _1  0.21; C   _2  0.21; C   _1  0.52; C   _2  0.52; C       0.28; N       0.55; O   _1 -0.85; O   _2 -0.85; H   _1 -0.46; 
@             H   _2 -0.46; H   _1 -0.45; H   _2 -0.45; H      -0.46; 
   4  Level shift: doubly occupied orbital energies shifted by -1.25D-02
 -----------------------------------------------------------------------------
   5  Screening settings (-IFTHRS, JTDIIS, DIFDEN, times)  -10    5    F  2.90D+01  2.90D+01
@  5  -434.234307450       5.49D-02  -2.63D-03    16  11   3   2
      Virial theorem: -V/T =      2.002067
@    MULPOP   C       1.73; C   _1  0.19; C   _2  0.19; C   _1  0.51; C   _2  0.51; C       0.26; N       0.55; O   _1 -0.86; O   _2 -0.86; H   _1 -0.45; 
@             H   _2 -0.45; H   _1 -0.44; H   _2 -0.44; H      -0.44; 
 -----------------------------------------------------------------------------
   6  Screening settings (-IFTHRS, JTDIIS, DIFDEN, times)  -10    6    T  2.89D+01  2.89D+01
@  6  -434.234643871       1.53D-02  -3.36D-04    16  11   3   2
      Virial theorem: -V/T =      2.001990
@    MULPOP   C       1.74; C   _1  0.18; C   _2  0.18; C   _1  0.52; C   _2  0.52; C       0.26; N       0.53; O   _1 -0.86; O   _2 -0.86; H   _1 -0.44; 
@             H   _2 -0.44; H   _1 -0.44; H   _2 -0.44; H      -0.44; 
 -----------------------------------------------------------------------------
   7  Screening settings (-IFTHRS, JTDIIS, DIFDEN, times)  -13    7    F  2.90D+01  2.90D+01
@  7  -434.234676655       6.25D-03  -3.28D-05    16  11   3   2
      Virial theorem: -V/T =      2.002026
@    MULPOP   C       1.75; C   _1  0.18; C   _2  0.18; C   _1  0.51; C   _2  0.51; C       0.26; N       0.53; O   _1 -0.86; O   _2 -0.86; H   _1 -0.44; 
@             H   _2 -0.44; H   _1 -0.44; H   _2 -0.44; H      -0.44; 
 -----------------------------------------------------------------------------
   8  Screening settings (-IFTHRS, JTDIIS, DIFDEN, times)  -13    8    T  2.94D+01  2.94D+01
@  8  -434.234681753       2.13D-03  -5.10D-06    16  11   3   2
      Virial theorem: -V/T =      2.002014
@    MULPOP   C       1.75; C   _1  0.18; C   _2  0.18; C   _1  0.51; C   _2  0.51; C       0.26; N       0.53; O   _1 -0.86; O   _2 -0.86; H   _1 -0.44; 
@             H   _2 -0.44; H   _1 -0.44; H   _2 -0.44; H      -0.44; 
 -----------------------------------------------------------------------------
   9  Screening settings (-IFTHRS, JTDIIS, DIFDEN, times)  -13    9    T  2.85D+01  2.85D+01
@  9  -434.234682311       6.61D-04  -5.58D-07    16  11   3   2
      Virial theorem: -V/T =      2.002011
@    MULPOP   C       1.75; C   _1  0.18; C   _2  0.18; C   _1  0.51; C   _2  0.51; C       0.26; N       0.53; O   _1 -0.86; O   _2 -0.86; H   _1 -0.44; 
@             H   _2 -0.44; H   _1 -0.44; H   _2 -0.44; H      -0.44; 
 -----------------------------------------------------------------------------
  10  Screening settings (-IFTHRS, JTDIIS, DIFDEN, times)  -13   10    T  2.90D+01  2.90D+01
@ 10  -434.234682365       2.17D-04  -5.39D-08    16  11   3   2
      Virial theorem: -V/T =      2.002012
@    MULPOP   C       1.75; C   _1  0.18; C   _2  0.18; C   _1  0.51; C   _2  0.51; C       0.26; N       0.53; O   _1 -0.86; O   _2 -0.86; H   _1 -0.44; 
@             H   _2 -0.44; H   _1 -0.44; H   _2 -0.44; H      -0.44; 
 -----------------------------------------------------------------------------
  11  Screening settings (-IFTHRS, JTDIIS, DIFDEN, times)  -13   11    T  2.86D+01  2.87D+01
@ 11  -434.234682373       8.15D-05  -8.25D-09    16  11   3   2
      Virial theorem: -V/T =      2.002012
@    MULPOP   C       1.75; C   _1  0.18; C   _2  0.18; C   _1  0.51; C   _2  0.51; C       0.26; N       0.53; O   _1 -0.86; O   _2 -0.86; H   _1 -0.44; 
@             H   _2 -0.44; H   _1 -0.44; H   _2 -0.44; H      -0.44; 
 -----------------------------------------------------------------------------
  12  Screening settings (-IFTHRS, JTDIIS, DIFDEN, times)  -13   12    T  2.88D+01  2.88D+01
@ 12  -434.234682374       3.36D-05  -1.38D-09    16  11   3   2
      Virial theorem: -V/T =      2.002012
@    MULPOP   C       1.75; C   _1  0.18; C   _2  0.18; C   _1  0.51; C   _2  0.51; C       0.26; N       0.53; O   _1 -0.86; O   _2 -0.86; H   _1 -0.44; 
@             H   _2 -0.44; H   _1 -0.44; H   _2 -0.44; H      -0.44; 
 -----------------------------------------------------------------------------
  13  Screening settings (-IFTHRS, JTDIIS, DIFDEN, times)  -13   13    T  2.93D+01  2.93D+01
@ 13  -434.234682374       1.88D-05  -2.12D-10    16  11   3   2
      Virial theorem: -V/T =      2.002012
@    MULPOP   C       1.75; C   _1  0.18; C   _2  0.18; C   _1  0.51; C   _2  0.51; C       0.26; N       0.53; O   _1 -0.86; O   _2 -0.86; H   _1 -0.44; 
@             H   _2 -0.44; H   _1 -0.44; H   _2 -0.44; H      -0.44; 
 -----------------------------------------------------------------------------
  14  Screening settings (-IFTHRS, JTDIIS, DIFDEN, times)  -13   14    T  2.89D+01  2.89D+01
@ 14  -434.234682375       6.61D-06  -9.57D-11    16  11   3   2
      Virial theorem: -V/T =      2.002012
@    MULPOP   C       1.75; C   _1  0.18; C   _2  0.18; C   _1  0.51; C   _2  0.51; C       0.26; N       0.53; O   _1 -0.86; O   _2 -0.86; H   _1 -0.44; 
@             H   _2 -0.44; H   _1 -0.44; H   _2 -0.44; H      -0.44; 
 -----------------------------------------------------------------------------
  15  Screening settings (-IFTHRS, JTDIIS, DIFDEN, times)  -13   15    T  2.86D+01  2.86D+01
@ 15  -434.234682375       2.79D-06  -1.84D-11    16  11   3   2
      Virial theorem: -V/T =      2.002012
@    MULPOP   C       1.75; C   _1  0.18; C   _2  0.18; C   _1  0.51; C   _2  0.51; C       0.26; N       0.53; O   _1 -0.86; O   _2 -0.86; H   _1 -0.44; 
@             H   _2 -0.44; H   _1 -0.44; H   _2 -0.44; H      -0.44; 
 -----------------------------------------------------------------------------
  16  Screening settings (-IFTHRS, JTDIIS, DIFDEN, times)  -13   16    T  2.90D+01  2.90D+01
@ 16  -434.234682375       1.26D-06  -5.68D-13    16  11   3   2
      Virial theorem: -V/T =      2.002012
@    MULPOP   C       1.75; C   _1  0.18; C   _2  0.18; C   _1  0.51; C   _2  0.51; C       0.26; N       0.53; O   _1 -0.86; O   _2 -0.86; H   _1 -0.44; 
@             H   _2 -0.44; H   _1 -0.44; H   _2 -0.44; H      -0.44; 
 -----------------------------------------------------------------------------
  17  Screening settings (-IFTHRS, JTDIIS, DIFDEN, times)  -13   17    T  2.80D+01  2.80D+01
@ 17  -434.234682375       5.08D-07   2.05D-12    16  11   3   2

@ *** DIIS converged in  17 iterations !
@     Converged SCF energy, gradient:   -434.234682374562    5.08D-07
    - total time used in SIRFCK :              0.00 seconds

 --- Writing SIRIFC interface file

 CPU and wall time for SCF :     490.484     490.656


 ----- Output from SIRIUS MP2 module -----

 Reference: H.J.Aa.Jensen, P.Jorgensen, H.Agren, and J.Olsen,
            J. Chem. Phys. 88, 3834 (1988); 89, 5354 (1988)

 Checking that the closed shell orbitals are canonical Hartree-Fock orbitals

    Number of electrons  :   64
    Closed shell orbitals:   16   11    3    2

 Generating Fock matrix

 Hartree-Fock electronic energy:        -846.882469192768
 Hartree-Fock total      energy:        -434.234682374564

 Hartree-Fock orbital energies, symmetry 1 ( A1 ),   16 occupied SCF orbitals

       -20.61789564   -15.86432265   -11.31742106   -11.28240210   -11.28019740
       -11.27281579    -1.61194226    -1.20033316    -1.09238126    -0.96198927
        -0.83402477    -0.78443674    -0.70867492    -0.65127018    -0.55518732
        -0.49362047     0.02710478     0.04428395     0.06226659     0.10485043
         0.13087800     0.13514885     0.15159730     0.15646219     0.17314005
         0.17996726     0.21577784     0.25878479     0.28722091     0.30204695
         0.30995595     0.33892191     0.35166971     0.35496707     0.37036465
         0.39526869     0.41251765     0.43608895     0.46070872     0.48596791
         0.50887906     0.56057614     0.57934879     0.58473182     0.63115583
         0.65103597     0.66018343     0.67827063     0.72416804     0.73226083
         0.74317810     0.83833319     0.88146323     0.92686073     0.95925735
         0.96517553     1.00850461     1.05333474     1.08109229     1.13860532
         1.28087057     1.36349682     1.37776130     1.44661384     1.49298239
         1.51685817     1.55350117     1.57192685     1.59700970     1.61722325
         1.68084626     1.72274465     1.74716641     1.76723498     1.86874230
         1.94125891     1.95843229     2.00718745     2.01748034     2.12320026
         2.15145830     2.23701628     2.31464694     2.36595989     2.42191926
         2.44869661     2.55747999     2.70760769     2.77648443     2.84350330
         2.88282581     2.97522181     3.03952701     3.15630567     3.27458538
         3.43394640     3.76611673     3.94990999     4.09145379     4.25733100
        19.80131938    20.33751422    20.45524202    20.62221571    23.35491585
        23.37449417    23.42805011    23.81693599    23.91481326    24.12428204
        27.08989488    31.25026098    35.81070349    39.70861479    39.88462537

 Hartree-Fock orbital energies, symmetry 2 ( B1 ),   11 occupied SCF orbitals

       -20.61794450   -11.28244096   -11.27292350    -1.41273236    -1.05440260
        -0.86648578    -0.73446831    -0.65785501    -0.62538061    -0.53110908
        -0.50161597     0.03635172     0.05991278     0.13047085     0.13377101
         0.15384550     0.17383488     0.18398534     0.21447294     0.26201298
         0.28967033     0.31428559     0.33363294     0.36304749     0.37060495
         0.39485425     0.42267311     0.43836450     0.47620981     0.56873658
         0.58021385     0.59319366     0.65018047     0.67332964     0.68106306
         0.70283250     0.75494383     0.76228335     0.83013365     0.84334132
         0.86663998     0.93440656     1.01440912     1.14086479     1.20677359
         1.25252082     1.30850287     1.41005805     1.42411961     1.48724836
         1.56912802     1.59313166     1.60348192     1.63831198     1.70774121
         1.76122113     1.77244867     1.79012704     1.89132479     1.93108057
         1.99587375     2.08638922     2.22947912     2.25882703     2.33767001
         2.34857565     2.38918585     2.53761344     2.57180179     2.77238396
         2.89969574     2.93319434     3.08779991     3.27288431     3.32720061
         3.41323521     3.75498313     3.85686050     4.22302199    20.30561688
        20.48546922    22.91144301    23.34434340    23.39408157    23.93962660
        24.12264155    24.31026963    31.44903116    35.53819036    39.63432386
        40.00659224

 Hartree-Fock orbital energies, symmetry 3 ( B2 ),    3 occupied SCF orbitals

        -0.72178048    -0.53603442    -0.37655921     0.03546495     0.10753429
         0.12572439     0.13972588     0.18446071     0.19317749     0.24391962
         0.32126050     0.34323991     0.37240408     0.44479920     0.53390295
         0.58859314     0.64403618     0.71337468     0.79047020     0.83792717
         0.87331408     0.92279769     0.92777523     0.98525485     1.14680292
         1.28763399     1.30310255     1.47135361     1.47411176     1.61793936
         1.67431216     1.70937811     1.84727736     1.89786634     1.97131835
         2.08345237     2.17998304     2.29628138     2.53637699     2.67813284
         3.67328315     3.77096419    22.54534669    22.69245799    22.82950486
        23.02800841    30.55249931    39.41836353

 Hartree-Fock orbital energies, symmetry 4 ( A2 ),    2 occupied SCF orbitals

        -0.46109437    -0.36838902     0.08689655     0.13191392     0.18636691
         0.29716595     0.41403678     0.49119157     0.54946132     0.66295838
         0.73708154     0.89645581     0.90320303     0.94598009     1.03443846
         1.09317704     1.21338633     1.23910341     1.33123383     1.49096729
         1.67360858     1.69020742     1.86208610     2.01095404     2.11869548
         2.21503776     2.35651331     2.46632870     2.60737101     3.66452537
         4.00847745    22.69380133    22.86060012    39.49847210

    E(LUMO) :     0.02710478   (in symmetry 1)
  - E(HOMO) :    -0.36838902   (in symmetry 4)
  --------------------------
    gap     :     0.39549380

---> (Re)generating AOTWOINT


     ************************************************************************
     ************************** Output from HERINT **************************
     ************************************************************************


 Threshold for neglecting two-electron integrals:  1.00D-12
 HERMIT - Number of two-electron integrals written:   203725702 ( 23.5% )
 HERMIT - Megabytes written:                           3109.904

  Time used in TWOINT     is      39.34 seconds

 2-el. integral transformation level 5: Total CPU and WALL times (sec)     416.094     417.993

 MP2 move   0.994713 electrons to unoccupied HF orbitals


@   Hartree-Fock total energy   :          -434.2346823746
@   + MP2 contribution          :            -1.7266713221
@   = MP2 second order energy   :          -435.9613536967

 Natural orbital occupation numbers, symmetry 1 (irrep A1 )
 Sum =    32.00802585; RHF =    32.00000000; Difference =     0.00802585

         1.99928995     1.99907557     1.99876146     1.99875656     1.99875182
         1.99874785     1.98687611     1.98411342     1.97942397     1.97231408
         1.96891559     1.96827174     1.96522746     1.96213396     1.95511297
         1.94578138     0.04353823     0.03586197     0.02553273     0.02382992
         0.01918555     0.01854474     0.01735962     0.01648478     0.01380121
         0.01266631     0.01158467     0.00983182     0.00854040     0.00788173
         0.00734955     0.00668331     0.00559550     0.00453898     0.00306965
         0.00294426     0.00268982     0.00260904     0.00221174     0.00202235
         0.00184707     0.00167206     0.00161805     0.00131519     0.00121355
         0.00116120     0.00105987     0.00096386     0.00071743     0.00065308
         0.00061275     0.00053370     0.00049999     0.00046630     0.00043869
         0.00041706     0.00040169     0.00038686     0.00037614     0.00034958
         0.00034112     0.00032300     0.00031128     0.00028918     0.00026761
         0.00026069     0.00022467     0.00021358     0.00020383     0.00019593
         0.00018663     0.00018592     0.00017627     0.00017069     0.00016701
         0.00016148     0.00015565     0.00014931     0.00014055     0.00013335
         0.00012593     0.00012343     0.00012201     0.00011067     0.00010523
         0.00009368     0.00007808     0.00007154     0.00005784     0.00005389
         0.00005127     0.00003853     0.00003459     0.00002842     0.00002006
         0.00001795     0.00001446     0.00001292     0.00001150     0.00000936
         0.00000879     0.00000850     0.00000700     0.00000310     0.00000294
         0.00000201     0.00000102     0.00000056     0.00000036     0.00000018
         0.00000016     0.00000001    -0.00000010    -0.00000052    -0.00006315

 Natural orbital occupation numbers, symmetry 2 (irrep B1 )
 Sum =    21.95335940; RHF =    22.00000000; Difference =    -0.04664060

         1.99928984     1.99875719     1.99875083     1.98421738     1.98002025
         1.97273235     1.96268941     1.96058595     1.95478949     1.95425747
         1.94618397     0.03766262     0.02541285     0.02379325     0.01900905
         0.01660821     0.01595496     0.01522664     0.01125162     0.01054746
         0.00912299     0.00770625     0.00582398     0.00540116     0.00514779
         0.00407336     0.00313010     0.00271453     0.00239186     0.00213023
         0.00171493     0.00162451     0.00151993     0.00132040     0.00118533
         0.00102421     0.00097214     0.00069923     0.00064192     0.00056995
         0.00049336     0.00044078     0.00042359     0.00037336     0.00035398
         0.00033897     0.00030860     0.00029368     0.00027045     0.00025826
         0.00023865     0.00021155     0.00019831     0.00018760     0.00018266
         0.00017801     0.00017053     0.00016939     0.00016026     0.00015367
         0.00014415     0.00013386     0.00012922     0.00012599     0.00011901
         0.00011285     0.00009471     0.00008905     0.00006807     0.00005588
         0.00004613     0.00003730     0.00003084     0.00002915     0.00002375
         0.00001511     0.00001432     0.00001145     0.00001058     0.00000868
         0.00000471     0.00000354     0.00000182     0.00000124     0.00000058
         0.00000028     0.00000014    -0.00000004    -0.00000019    -0.00000067
        -0.00001339

 Natural orbital occupation numbers, symmetry 3 (irrep B2 )
 Sum =     6.07742628; RHF =     6.00000000; Difference =     0.07742628

         1.95066375     1.94434670     1.90902896     0.10129581     0.06753585
         0.02963398     0.01052102     0.01032563     0.00873518     0.00790168
         0.00615503     0.00526394     0.00446751     0.00387236     0.00342743
         0.00307568     0.00153985     0.00144694     0.00099589     0.00089175
         0.00086852     0.00066296     0.00059734     0.00049379     0.00047306
         0.00041898     0.00033458     0.00029076     0.00024807     0.00022907
         0.00019676     0.00019585     0.00018988     0.00017622     0.00015398
         0.00013002     0.00012105     0.00011159     0.00010117     0.00008346
         0.00008081     0.00006259     0.00003621     0.00002015     0.00001050
         0.00000753     0.00000521     0.00000122

 Natural orbital occupation numbers, symmetry 4 (irrep A2 )
 Sum =     3.96118847; RHF =     4.00000000; Difference =    -0.03881153

         1.91633757     1.90852224     0.06664415     0.01451106     0.01041816
         0.00929833     0.00793047     0.00571207     0.00516722     0.00406725
         0.00357440     0.00152525     0.00118861     0.00093681     0.00077979
         0.00072909     0.00067550     0.00056501     0.00040797     0.00037099
         0.00033915     0.00029868     0.00021622     0.00019700     0.00016433
         0.00013357     0.00011672     0.00010337     0.00009364     0.00006957
         0.00005033     0.00002072     0.00001768     0.00000554

 Time used for MP2 natural orbitals :     448.859 CPU seconds,     450.758 wall seconds.

 CPU and wall time for MP2 :     448.859     450.758


        SIRIUS MCSCF optimization (SIROPT)
 ================================================


 Fock matrix screening setting for SIRCNO: IFTHRS =    9


 ----- Output from SIRIUS CI module (CICTL) -----




 2-el. integral transformation level 0: Total CPU and WALL times (sec)     100.734     100.793


 --- SIRCI.CIST1: plus combination of all degenerate
                 configurations is used as start vectors.


 (CIST1) 8 lowest diagonal elements:

 Element no. Config.no.    Active energy      Total energy

         1 :         67    -17.3331529520   -434.2160440350
         2 :         69    -17.0418078820   -433.9246989650
         3 :         81    -17.0418078820   -433.9246989650
         4 :         68    -16.9910588429   -433.8739499259
         5 :         74    -16.9910588429   -433.8739499259
         6 :         78    -16.8818025057   -433.7646935887
         7 :         96    -16.8818025057   -433.7646935887
         8 :         71    -16.8344218988   -433.7173129818


 Convergence threshold for CI optimization :     0.00000500



 *** Reached maximum number of CI iterations:    3
              1 CI roots are not converged.


@ Final CI energies and residuals in symmetry 1 (irrep A1 )
@    1     -434.264945433399362       4.68D-03

   --- OUTPUT FROM SIRCNO     Keyword = FD+NO 


 Occupations of CAS natural orbitals:

 Symmetry  1 ( irrep A1  in C2v )

   1.999833744

 Symmetry  2 ( irrep B1  in C2v )

   1.999837289

 Symmetry  3 ( irrep B2  in C2v )

   1.989157884   0.087168965

 Symmetry  4 ( irrep A2  in C2v )

   1.915984179   1.968759084   0.039258854


 --- MACRO ITERATION  1 ---
 --------------------------

 2-el. integral transformation level 3: Total CPU and WALL times (sec)     102.906     102.930

 Fock matrix screening setting for this macro iteration: 10^( -9)

 Total MCSCF energy       :          -434.264945434997117  (MACRO    1)

 - Nuclear repulsion      :           412.647786818204793
 - Inactive energy        :          -829.530677901527497
 - Active energy          :           -17.382054351674398

 Norm of total gradient   :             0.521506157521
 -    of CI gradient      :             0.009366902318
 -    of orbital gradient :             0.521422030100
      Virial theorem: -V/T =      2.000873
@    MULPOP   C       1.41; C   _1  0.31; C   _2  0.31; C   _1  0.49; C   _2  0.49; C       0.32; N       0.38; O   _1 -0.66; O   _2 -0.66; H   _1 -0.49; 
@             H   _2 -0.49; H   _1 -0.47; H   _2 -0.47; H      -0.47; 

 Residual norm when dim(red L) =   4
 NEO root     CSF        orbital          total
    1     0.07274225     0.02870185     0.07819994 converged

 (NEONEX) NEO vector is converged.

   --- OUTPUT FROM SIRCNO     Keyword = FD+NO 


 Occupations of CAS natural orbitals:

 Symmetry  1 ( irrep A1  in C2v )

   1.999833744

 Symmetry  2 ( irrep B1  in C2v )

   1.999837289

 Symmetry  3 ( irrep B2  in C2v )

   1.989157884   0.087168965

 Symmetry  4 ( irrep A2  in C2v )

   1.915984179   1.968759084   0.039258854


 --- MACRO ITERATION  2 ---
 --------------------------

 2-el. integral transformation level 3: Total CPU and WALL times (sec)     102.031     102.052

 Fock matrix screening setting for this macro iteration: 10^( -9)

 Total MCSCF energy       :          -434.284407689902650  (MACRO    2)

 - Nuclear repulsion      :           412.647786818204793
 - Inactive energy        :          -829.512421994902184
 - Active energy          :           -17.419772513205256

 Norm of total gradient   :             0.062221252051
 -    of CI gradient      :             0.055034947965
 -    of orbital gradient :             0.029028239859
      Virial theorem: -V/T =      2.001847
@    MULPOP   C       1.81; C   _1  0.16; C   _2  0.16; C   _1  0.50; C   _2  0.50; C       0.26; N       0.45; O   _1 -0.81; O   _2 -0.81; H   _1 -0.44; 
@             H   _2 -0.44; H   _1 -0.44; H   _2 -0.44; H      -0.44; 

 (SIRNEO) iteration (  2,  7)
 Micro iteration termination criterion met, EVAL(ISTATE+1) = -3.86D-04

   --- OUTPUT FROM SIRCNO     Keyword = FD+NO 


 Occupations of CAS natural orbitals:

 Symmetry  1 ( irrep A1  in C2v )

   1.999732016

 Symmetry  2 ( irrep B1  in C2v )

   1.998540314

 Symmetry  3 ( irrep B2  in C2v )

   1.989298952   0.126836948

 Symmetry  4 ( irrep A2  in C2v )

   1.875427030   1.964078580   0.046086161


 --- MACRO ITERATION  3 ---
 --------------------------

 2-el. integral transformation level 3: Total CPU and WALL times (sec)     104.047     104.096

 Fock matrix screening setting for this macro iteration: 10^( -9)

 Total MCSCF energy       :          -434.286559526834083  (MACRO    3)

 - Nuclear repulsion      :           412.647786818204793
 - Inactive energy        :          -829.948737334104635
 - Active energy          :           -16.985609010934219

 Norm of total gradient   :             0.026093812833
 -    of CI gradient      :             0.015011088238
 -    of orbital gradient :             0.021343718000
      Virial theorem: -V/T =      2.001723
@    MULPOP   C       1.81; C   _1  0.17; C   _2  0.17; C   _1  0.49; C   _2  0.49; C       0.27; N       0.42; O   _1 -0.79; O   _2 -0.79; H   _1 -0.45; 
@             H   _2 -0.45; H   _1 -0.44; H   _2 -0.44; H      -0.44; 

 (SIRNEO) iteration (  3,  8)
 Micro iteration termination criterion met, EVAL(ISTATE+1) = -9.69D-05

   --- OUTPUT FROM SIRCNO     Keyword = FD+NO 


 Occupations of CAS natural orbitals:

 Symmetry  1 ( irrep A1  in C2v )

   1.999770924

 Symmetry  2 ( irrep B1  in C2v )

   1.999085302

 Symmetry  3 ( irrep B2  in C2v )

   1.989435733   0.122562622

 Symmetry  4 ( irrep A2  in C2v )

   1.879139070   1.964835186   0.045171163


 --- MACRO ITERATION  4 ---
 --------------------------

 2-el. integral transformation level 3: Total CPU and WALL times (sec)     102.484     102.537

 Fock matrix screening setting for this macro iteration: 10^( -9)

 Total MCSCF energy       :          -434.286933617632371  (MACRO    4)

 - Nuclear repulsion      :           412.647786818204793
 - Inactive energy        :          -828.984368867825651
 - Active energy          :           -17.950351568011531

 Norm of total gradient   :             0.012849797730
 -    of CI gradient      :             0.009175310559
 -    of orbital gradient :             0.008996164619
      Virial theorem: -V/T =      2.001748
@    MULPOP   C       1.81; C   _1  0.16; C   _2  0.16; C   _1  0.50; C   _2  0.50; C       0.27; N       0.43; O   _1 -0.79; O   _2 -0.79; H   _1 -0.45; 
@             H   _2 -0.45; H   _1 -0.44; H   _2 -0.44; H      -0.45; 

 Residual norm when dim(red L) =  14
 NEO root     CSF        orbital          total
    1     0.00087889     0.00069674     0.00112156 converged

 (NEONEX) NEO vector is converged.

   --- OUTPUT FROM SIRCNO     Keyword = FD+NO 


 Occupations of CAS natural orbitals:

 Symmetry  1 ( irrep A1  in C2v )

   1.999403656

 Symmetry  2 ( irrep B1  in C2v )

   1.999105322

 Symmetry  3 ( irrep B2  in C2v )

   1.989042933   0.124664223

 Symmetry  4 ( irrep A2  in C2v )

   1.877500983   1.964184457   0.046098426


 --- MACRO ITERATION  5 ---
 --------------------------

 2-el. integral transformation level 3: Total CPU and WALL times (sec)     102.500     102.554

 Fock matrix screening setting for this macro iteration: 10^( -9)

 Total MCSCF energy       :          -434.287321831993665  (MACRO    5)

 - Nuclear repulsion      :           412.647786818204793
 - Inactive energy        :          -828.796508730996720
 - Active energy          :           -18.138599919201759

 Norm of total gradient   :             0.007192532171
 -    of CI gradient      :             0.006944635028
 -    of orbital gradient :             0.001872047906
      Virial theorem: -V/T =      2.001738
@    MULPOP   C       1.80; C   _1  0.17; C   _2  0.17; C   _1  0.49; C   _2  0.49; C       0.27; N       0.43; O   _1 -0.79; O   _2 -0.79; H   _1 -0.45; 
@             H   _2 -0.45; H   _1 -0.44; H   _2 -0.44; H      -0.45; 

 Residual norm when dim(red L) =  12
 NEO root     CSF        orbital          total
    1     0.00106580     0.00066544     0.00125648 converged

 (NEONEX) NEO vector is converged.

   --- OUTPUT FROM SIRCNO     Keyword = FD+NO 


 Occupations of CAS natural orbitals:

 Symmetry  1 ( irrep A1  in C2v )

   1.998252864

 Symmetry  2 ( irrep B1  in C2v )

   1.999376786

 Symmetry  3 ( irrep B2  in C2v )

   1.989005965   0.124148037

 Symmetry  4 ( irrep A2  in C2v )

   1.878857637   1.964379826   0.045978884


 --- MACRO ITERATION  6 ---
 --------------------------

 2-el. integral transformation level 3: Total CPU and WALL times (sec)     102.719     102.738

 Fock matrix screening setting for this macro iteration: 10^( -9)

 Total MCSCF energy       :          -434.287623486877408  (MACRO    6)

 - Nuclear repulsion      :           412.647786818204793
 - Inactive energy        :          -829.069083542646922
 - Active energy          :           -17.866326762435257

 Norm of total gradient   :             0.012265337251
 -    of CI gradient      :             0.011613972255
 -    of orbital gradient :             0.003943874535
      Virial theorem: -V/T =      2.001736
@    MULPOP   C       1.80; C   _1  0.17; C   _2  0.17; C   _1  0.49; C   _2  0.49; C       0.27; N       0.43; O   _1 -0.79; O   _2 -0.79; H   _1 -0.45; 
@             H   _2 -0.45; H   _1 -0.44; H   _2 -0.44; H      -0.45; 

 Residual norm when dim(red L) =   9
 NEO root     CSF        orbital          total
    1     0.00126821     0.00070100     0.00144905 converged

 (NEONEX) NEO vector is converged.

   --- OUTPUT FROM SIRCNO     Keyword = FD+NO 


 Occupations of CAS natural orbitals:

 Symmetry  1 ( irrep A1  in C2v )

   1.998610067

 Symmetry  2 ( irrep B1  in C2v )

   1.999469308

 Symmetry  3 ( irrep B2  in C2v )

   1.989034643   0.123130016

 Symmetry  4 ( irrep A2  in C2v )

   1.879430117   1.964426661   0.045899189


 --- MACRO ITERATION  7 ---
 --------------------------

 2-el. integral transformation level 3: Total CPU and WALL times (sec)     103.203     103.264

 Fock matrix screening setting for this macro iteration: 10^( -9)

 Total MCSCF energy       :          -434.287666384047043  (MACRO    7)

 - Nuclear repulsion      :           412.647786818204793
 - Inactive energy        :          -828.938254233170710
 - Active energy          :           -17.997198969081104

 Norm of total gradient   :             0.001535126027
 -    of CI gradient      :             0.001354693131
 -    of orbital gradient :             0.000722093096
      Virial theorem: -V/T =      2.001738
@    MULPOP   C       1.80; C   _1  0.17; C   _2  0.17; C   _1  0.49; C   _2  0.49; C       0.27; N       0.43; O   _1 -0.79; O   _2 -0.79; H   _1 -0.45; 
@             H   _2 -0.45; H   _1 -0.44; H   _2 -0.44; H      -0.45; 

 Residual norm when dim(red L) =  23
 NEO root     CSF        orbital          total
    1     0.00000326     0.00000440     0.00000548 converged

 (NEONEX) NEO vector is converged.

   --- OUTPUT FROM SIRCNO     Keyword = FD+NO 


 Occupations of CAS natural orbitals:

 Symmetry  1 ( irrep A1  in C2v )

   1.998630677

 Symmetry  2 ( irrep B1  in C2v )

   1.999473063

 Symmetry  3 ( irrep B2  in C2v )

   1.989012847   0.123583140

 Symmetry  4 ( irrep A2  in C2v )

   1.878953640   1.964325152   0.046021482


 --- MACRO ITERATION  8 ---
 --------------------------

 2-el. integral transformation level 3: Total CPU and WALL times (sec)     103.219     103.275

 Fock matrix screening setting for this macro iteration: 10^( -9)

 Total MCSCF energy       :          -434.287667111612336  (MACRO    8)

 - Nuclear repulsion      :           412.647786818204793
 - Inactive energy        :          -828.928428440603398
 - Active energy          :           -18.007025489213749

 Norm of total gradient   :             0.000017845169
 -    of CI gradient      :             0.000016687063
 -    of orbital gradient :             0.000006323922
      Virial theorem: -V/T =      2.001738
@    MULPOP   C       1.80; C   _1  0.17; C   _2  0.17; C   _1  0.49; C   _2  0.49; C       0.27; N       0.43; O   _1 -0.79; O   _2 -0.79; H   _1 -0.45; 
@             H   _2 -0.45; H   _1 -0.44; H   _2 -0.44; H      -0.45; 

 Residual norm when dim(red L) =   4
 NEO root     CSF        orbital          total
    1     0.00000441     0.00000366     0.00000573 converged

 (NEONEX) NEO vector is converged.

   --- OUTPUT FROM SIRCNO     Keyword = FD+NO 


 Occupations of CAS natural orbitals:

 Symmetry  1 ( irrep A1  in C2v )

   1.998631258

 Symmetry  2 ( irrep B1  in C2v )

   1.999473154

 Symmetry  3 ( irrep B2  in C2v )

   1.989013027   0.123581519

 Symmetry  4 ( irrep A2  in C2v )

   1.878954584   1.964325324   0.046021134


 --- MACRO ITERATION  9 ---
 --------------------------

 2-el. integral transformation level 3: Total CPU and WALL times (sec)     103.078     103.134

 Fock matrix screening setting for this macro iteration: 10^( -9)

 Total MCSCF energy       :          -434.287667111707947  (MACRO    9)

 - Nuclear repulsion      :           412.647786818204793
 - Inactive energy        :          -828.928352934108148
 - Active energy          :           -18.007100995804578

 Norm of total gradient   :             0.000005726697
 -    of CI gradient      :             0.000004408380
 -    of orbital gradient :             0.000003655304
      Virial theorem: -V/T =      2.001738
@    MULPOP   C       1.80; C   _1  0.17; C   _2  0.17; C   _1  0.49; C   _2  0.49; C       0.27; N       0.43; O   _1 -0.79; O   _2 -0.79; H   _1 -0.45; 
@             H   _2 -0.45; H   _1 -0.44; H   _2 -0.44; H      -0.45; 

 (SIRSTP) Energy difference;
 actual, predicted and ratio:  -0.000000000095611  -0.000000000090731    1.053782
 Close to convergence, ratio set to one.

 *** Optimization control: MCSCF converged ***
     Number of macro iterations used            9
     Number of micro iterations used           70
     Total number of CPU seconds used      3843.47

 CPU and wall time for MCSCF :    3843.469    3844.896


                     .----------------------------------------.
                     | --- SIRIUS OPTIMIZATION STATISTICS --- |
                     `----------------------------------------'


 
     Date and time (Linux)  : Wed Feb 12 00:40:16 2020
     Host name              : Lab2-333-NPs                            


  ITER ITMIC     EMCSCF           GRDNRM        RATIO      STPLNG
 ---------------------------------------------------------------------
    1    3   -434.264945434997   0.5215061575  0.000000   0.1995484212
    2    7   -434.284407689903   0.0622212521  0.999208   0.7595765161
    3    8   -434.286559526834   0.0260938128  0.824323   0.6931610071
    4   12   -434.286933617632   0.0128497977  0.853223   0.6977416228
    5   10   -434.287321831994   0.0071925322  0.843022   0.7163446988
    6    7   -434.287623486877   0.0122653373  0.486006   0.1082787461
    7   21   -434.287666384047   0.0015351260  1.031737   0.0145098778
    8    2   -434.287667111612   0.0000178452  1.004159   0.0000711727
    9    0   -434.287667111708   0.0000057267  1.000000   0.0000000000


  ITER  INDGCM  GCIMAX      GCINRM     INDGOM  GOBMAX      GOBNRM      GRDNRM
 ------------------------------------------------------------------------------
    1     83    0.003477    0.009367   1568    0.062586    0.521422    0.521506
    2     56    0.042416    0.055035   2522    0.005080    0.029028    0.062221
    3      1   -0.013871    0.015011   1874    0.004828    0.021344    0.026094
    4     26    0.007130    0.009175   2522    0.001953    0.008996    0.012850
    5     26   -0.005805    0.006945   2491   -0.000601    0.001872    0.007193
    6     26   -0.010008    0.011614   2491   -0.002695    0.003944    0.012265
    7     26   -0.000583    0.001355   2697    0.000285    0.000722    0.001535
    8     26   -0.000015    0.000017      2   -0.000001    0.000006    0.000018
    9      1    0.000003    0.000004   2515   -0.000001    0.000004    0.000006


  ITER ITMIC NCLIN NOLIN   TIMMAC    TIMITR    TIMMIC    TIMLIN    TIMMIC/ITMIC
 ------------------------------------------------------------------------------

    1     3     0     3    261.98    102.91    126.84     95.61     42.28
    2     7     3     5    384.52    102.03    251.66    220.84     35.95
    3     8     1     8    426.94    104.05    291.08    259.30     36.38
    4    12     3    10    547.20    102.48    413.19    382.22     34.43
    5    10     4     7    481.64    102.50    348.03    315.03     34.80
    6     7     2     6    390.75    102.72    256.34    224.64     36.62
    7    21     8    14    820.62    103.20    685.84    654.33     32.66
[...]

       No.  Residual tot.,    conf., and orb.    Bnorm      Frequency 
      ----------------------------------------------------------------
         1    4.16150D+00  2.93D+00  2.96D+00  1.30D+02    0.00000D+00

 ** RSPCTL MICROITERATION NUMBER    6

 *** INFO, negative eigenvalues in reduced matrix. Symmetry  4,  triplet       F Dimension of reduced matrix =    14

 GP * SOLUTION vector at frequency     0.00000 a.u.
 after    7 linear transformations is      7.08343755D+03
 INERTIA (POS,ZER,NEG) of reduced matrix is   13    0    1
 Determinant of reduced matrix is -2.63 * 10 **-11.0

       No.  Residual tot.,    conf., and orb.    Bnorm      Frequency 
      ----------------------------------------------------------------
         1    3.15661D+00  2.85D+00  1.35D+00  1.31D+02    0.00000D+00

 ** RSPCTL MICROITERATION NUMBER    7

 *** INFO, negative eigenvalues in reduced matrix. Symmetry  4,  triplet       F Dimension of reduced matrix =    16

 GP * SOLUTION vector at frequency     0.00000 a.u.
 after    8 linear transformations is      7.09017801D+03
 INERTIA (POS,ZER,NEG) of reduced matrix is   15    0    1
 Determinant of reduced matrix is -2.27 * 10 **-11.0

       No.  Residual tot.,    conf., and orb.    Bnorm      Frequency 
      ----------------------------------------------------------------
         1    1.99598D+00  1.36D+00  1.46D+00  1.31D+02    0.00000D+00

 ** RSPCTL MICROITERATION NUMBER    8

 *** INFO, negative eigenvalues in reduced matrix. Symmetry  4,  triplet       F Dimension of reduced matrix =    18

 GP * SOLUTION vector at frequency     0.00000 a.u.
 after    9 linear transformations is      7.09127126D+03
 INERTIA (POS,ZER,NEG) of reduced matrix is   17    0    1
 Determinant of reduced matrix is -1.71 * 10 **-13.0

       No.  Residual tot.,    conf., and orb.    Bnorm      Frequency 
      ----------------------------------------------------------------
         1    1.48689D+00  1.37D+00  5.69D-01  1.32D+02    0.00000D+00

 ** RSPCTL MICROITERATION NUMBER    9

 *** INFO, negative eigenvalues in reduced matrix. Symmetry  4,  triplet       F Dimension of reduced matrix =    20

 GP * SOLUTION vector at frequency     0.00000 a.u.
 after   10 linear transformations is      7.09295288D+03
 INERTIA (POS,ZER,NEG) of reduced matrix is   19    0    1
 Determinant of reduced matrix is -2.02 * 10 **-13.0

       No.  Residual tot.,    conf., and orb.    Bnorm      Frequency 
      ----------------------------------------------------------------
         1    6.83786D-01  1.19D-01  6.73D-01  1.32D+02    0.00000D+00

 ** RSPCTL MICROITERATION NUMBER   10

 *** INFO, negative eigenvalues in reduced matrix. Symmetry  4,  triplet       F Dimension of reduced matrix =    22

 GP * SOLUTION vector at frequency     0.00000 a.u.
 after   11 linear transformations is      7.09319004D+03
 INERTIA (POS,ZER,NEG) of reduced matrix is   21    0    1
 Determinant of reduced matrix is -1.50 * 10 **-15.0

       No.  Residual tot.,    conf., and orb.    Bnorm      Frequency 
      ----------------------------------------------------------------
         1    2.94124D-01  1.94D-01  2.21D-01  1.33D+02    0.00000D+00

 ** RSPCTL MICROITERATION NUMBER   11

 *** INFO, negative eigenvalues in reduced matrix. Symmetry  4,  triplet       F Dimension of reduced matrix =    24

 GP * SOLUTION vector at frequency     0.00000 a.u.
 after   12 linear transformations is      7.09322417D+03
 INERTIA (POS,ZER,NEG) of reduced matrix is   23    0    1
 Determinant of reduced matrix is -5.03 * 10 **-17.0

       No.  Residual tot.,    conf., and orb.    Bnorm      Frequency 
      ----------------------------------------------------------------
         1    2.08927D-01  1.78D-01  1.10D-01  1.33D+02    0.00000D+00

 ** RSPCTL MICROITERATION NUMBER   12

 *** INFO, negative eigenvalues in reduced matrix. Symmetry  4,  triplet       F Dimension of reduced matrix =    26

 GP * SOLUTION vector at frequency     0.00000 a.u.
 after   13 linear transformations is      7.09325338D+03
 INERTIA (POS,ZER,NEG) of reduced matrix is   25    0    1
 Determinant of reduced matrix is -4.38 * 10 **-17.0

       No.  Residual tot.,    conf., and orb.    Bnorm      Frequency 
      ----------------------------------------------------------------
         1    1.04671D-01  3.07D-02  1.00D-01  1.34D+02    0.00000D+00

 *** THE REQUESTED    1 SOLUTION VECTORS CONVERGED

 Convergence of RSP solution vectors, threshold = 1.00D-03
 ---------------------------------------------------------------
 (dimension of paired reduced space:   26)
 RSP solution vector no.    1; norm of residual   7.83D-04

 *** RSPCTL MICROITERATIONS CONVERGED
    XDIPLEN     YDIPLEN      freq1     freq2                Norm
 ---------------------------------------------------------------
                          0.058400 -0.058400        133.71087674


 Perturbation symmetry.     KSYMOP:       1
 Perturbation spin symmetry.TRPLET:       F
 Orbital variables.         KZWOPT:    2762
 Configuration variables.   KZCONF:     115
 Total number of variables. KZVAR :    2877


 CRLRV2 -- linear response calc for sym:  1
 CRLRV2 -- operator label1: YDIPLEN 
 CRLRV2 -- operator label2: YDIPLEN 
 CRLRV2 -- freqr1 :   5.840000D-02
 CRLRV2 -- freqr2 :   5.840000D-02



 ---  SOLVING SETS OF LINEAR EQUATIONS FOR LINEAR RESPONSE PROPERTIES ---

 Operator symmetry = 1  ( A1 ); triplet =   F


 ** RSPCTL MICROITERATION NUMBER    1

       No.  Residual tot.,    conf., and orb.    Bnorm      Frequency 
      ----------------------------------------------------------------
         1    1.60228D+01  1.16D+00  1.60D+01  8.62D+01    1.16800D-01

 ** RSPCTL MICROITERATION NUMBER    2

       No.  Residual tot.,    conf., and orb.    Bnorm      Frequency 
      ----------------------------------------------------------------
         1    7.23029D+00  1.29D+00  7.11D+00  9.13D+01    1.16800D-01

 ** RSPCTL MICROITERATION NUMBER    3

       No.  Residual tot.,    conf., and orb.    Bnorm      Frequency 
      ----------------------------------------------------------------
         1    2.88993D+00  1.47D+00  2.49D+00  9.32D+01    1.16800D-01

 ** RSPCTL MICROITERATION NUMBER    4

       No.  Residual tot.,    conf., and orb.    Bnorm      Frequency 
      ----------------------------------------------------------------
         1    1.77811D+00  1.56D+00  8.49D-01  9.38D+01    1.16800D-01

 ** RSPCTL MICROITERATION NUMBER    5

       No.  Residual tot.,    conf., and orb.    Bnorm      Frequency 
      ----------------------------------------------------------------
         1    1.42046D+00  5.25D-01  1.32D+00  9.41D+01    1.16800D-01

 ** RSPCTL MICROITERATION NUMBER    6

       No.  Residual tot.,    conf., and orb.    Bnorm      Frequency 
      ----------------------------------------------------------------
         1    1.28571D+00  6.75D-01  1.09D+00  9.51D+01    1.16800D-01

 ** RSPCTL MICROITERATION NUMBER    7

       No.  Residual tot.,    conf., and orb.    Bnorm      Frequency 
      ----------------------------------------------------------------
         1    8.95484D-01  7.64D-01  4.67D-01  9.62D+01    1.16800D-01

 ** RSPCTL MICROITERATION NUMBER    8

       No.  Residual tot.,    conf., and orb.    Bnorm      Frequency 
      ----------------------------------------------------------------
         1    6.59507D-01  3.24D-01  5.75D-01  9.64D+01    1.16800D-01

 ** RSPCTL MICROITERATION NUMBER    9

       No.  Residual tot.,    conf., and orb.    Bnorm      Frequency 
      ----------------------------------------------------------------
         1    3.85473D-01  3.30D-01  1.99D-01  9.67D+01    1.16800D-01

 ** RSPCTL MICROITERATION NUMBER   10

       No.  Residual tot.,    conf., and orb.    Bnorm      Frequency 
      ----------------------------------------------------------------
         1    2.88103D-01  5.62D-02  2.83D-01  9.71D+01    1.16800D-01

 ** RSPCTL MICROITERATION NUMBER   11

       No.  Residual tot.,    conf., and orb.    Bnorm      Frequency 
      ----------------------------------------------------------------
         1    1.30336D-01  6.60D-02  1.12D-01  9.70D+01    1.16800D-01

 ** RSPCTL MICROITERATION NUMBER   12

       No.  Residual tot.,    conf., and orb.    Bnorm      Frequency 
      ----------------------------------------------------------------
         1    7.64230D-02  6.94D-02  3.19D-02  9.69D+01    1.16800D-01

 *** THE REQUESTED    1 SOLUTION VECTORS CONVERGED

 Convergence of RSP solution vectors, threshold = 1.00D-03
 ---------------------------------------------------------------
 (dimension of paired reduced space:   26)
 RSP solution vector no.    1; norm of residual   7.88D-04

 *** RSPCTL MICROITERATIONS CONVERGED
    YDIPLEN     YDIPLEN      freq1     freq2                Norm
 ---------------------------------------------------------------
                          0.058400  0.058400         96.93575249
  Time used in CRVEC2     is       2 hours 27 minutes 58 seconds


 ----- CALCULATING CONTRIBUTIONS TO SECOND HYPERPOLARIZABILITY -----


   Contribution                Term         Accumulated
 ------------------------------------------------------
 Na T[4] Nb Nc Nd    57951.10298237      57951.10298237
 Na T[3] Nx Nyz    -114135.22475823     -56184.12177586
 Na X[3] Ny Nz       59398.49024969       3214.36847383
 Nx A[3] Ny Nz       19799.49674990      23013.86522373
 Na X[2] Nyz        -17517.05052693       5496.81469680
 Nx A[2] Nyz        -40513.22940314     -35016.41470633

@ Cubic response function value in a.u. for
@ A operator, symmetry, frequency:   ZDIPLEN    1 -0.058400
@ B operator, symmetry, frequency:   ZDIPLEN    1  0.058400
@ C operator, symmetry, frequency:   ZDIPLEN    1 -0.058400
@ D operator, symmetry, frequency:   ZDIPLEN    1  0.058400

@ << A; B, C, D >>  =      -35016.41470633



   Contribution                Term         Accumulated
 ------------------------------------------------------
 Na T[4] Nb Nc Nd   134188.29212463     134188.29212463
 Na T[3] Nx Nyz   -1448541.70893889   -1314353.41681427
 Na X[3] Ny Nz       55428.32217086   -1258925.09464341
 Nx A[3] Ny Nz       14097.93543800   -1244827.15920540
 Na X[2] Nyz        400086.16652355    -844740.99268185
 Nx A[2] Nyz        -82426.09861850    -927167.09130035

@ Cubic response function value in a.u. for
@ A operator, symmetry, frequency:   XDIPLEN    2 -0.058400
@ B operator, symmetry, frequency:   XDIPLEN    2  0.058400
@ C operator, symmetry, frequency:   ZDIPLEN    1 -0.058400
@ D operator, symmetry, frequency:   ZDIPLEN    1  0.058400

@ << A; B, C, D >>  =     -927167.09130035



   Contribution                Term         Accumulated
 ------------------------------------------------------
 Na T[4] Nb Nc Nd    -4251.49819234      -4251.49819234
 Na T[3] Nx Nyz      -1858.67692657      -6110.17511891
 Na X[3] Ny Nz        7985.57500712       1875.39988821
 Nx A[3] Ny Nz        2747.63443074       4623.03431895
 Na X[2] Nyz         -1612.67849478       3010.35582417
 Nx A[2] Nyz         -7182.88304516      -4172.52722099

@ Cubic response function value in a.u. for
@ A operator, symmetry, frequency:   YDIPLEN    3 -0.058400
@ B operator, symmetry, frequency:   YDIPLEN    3  0.058400
@ C operator, symmetry, frequency:   ZDIPLEN    1 -0.058400
@ D operator, symmetry, frequency:   ZDIPLEN    1  0.058400

@ << A; B, C, D >>  =       -4172.52722099



   Contribution                Term         Accumulated
 ------------------------------------------------------
 Na T[4] Nb Nc Nd   121465.76207961     121465.76207961
 Na T[3] Nx Nyz    -731722.71457464    -610256.95249502
 Na X[3] Ny Nz       53849.57110342    -556407.38139161
 Nx A[3] Ny Nz       13418.23622451    -542989.14516709
 Na X[2] Nyz        161420.43880000    -381568.70636709
 Nx A[2] Nyz        -45566.23710876    -427134.94347585

@ Cubic response function value in a.u. for
@ A operator, symmetry, frequency:   XDIPLEN    2 -0.058400
@ B operator, symmetry, frequency:   ZDIPLEN    1  0.058400
@ C operator, symmetry, frequency:   XDIPLEN    2 -0.058400
@ D operator, symmetry, frequency:   ZDIPLEN    1  0.058400

@ << A; B, C, D >>  =     -427134.94347585



   Contribution                Term         Accumulated
 ------------------------------------------------------
 Na T[4] Nb Nc Nd    -4144.70773281      -4144.70773281
 Na T[3] Nx Nyz      -1705.15900806      -5849.86674087
 Na X[3] Ny Nz        7726.56710861       1876.70036774
 Nx A[3] Ny Nz        2592.26216776       4468.96253550
 Na X[2] Nyz         -1605.46968779       2863.49284771
 Nx A[2] Nyz         -6875.14384543      -4011.65099772

@ Cubic response function value in a.u. for
@ A operator, symmetry, frequency:   YDIPLEN    3 -0.058400
@ B operator, symmetry, frequency:   ZDIPLEN    1  0.058400
@ C operator, symmetry, frequency:   YDIPLEN    3 -0.058400
@ D operator, symmetry, frequency:   ZDIPLEN    1  0.058400

@ << A; B, C, D >>  =       -4011.65099772



   Contribution                Term         Accumulated
 ------------------------------------------------------
 Na T[4] Nb Nc Nd   153573.21397582     153573.21397582
 Na T[3] Nx Nyz    -747567.30027951    -593994.08630369
 Na X[3] Ny Nz       72847.46477139    -521146.62153230
 Nx A[3] Ny Nz       28814.10906709    -492332.51246521
 Na X[2] Nyz        -68589.73730398    -560922.24976919
 Nx A[2] Nyz        133747.64553042    -427174.60423877

@ Cubic response function value in a.u. for
@ A operator, symmetry, frequency:   ZDIPLEN    1 -0.058400
@ B operator, symmetry, frequency:   XDIPLEN    2  0.058400
@ C operator, symmetry, frequency:   ZDIPLEN    1 -0.058400
@ D operator, symmetry, frequency:   XDIPLEN    2  0.058400

@ << A; B, C, D >>  =     -427174.60423877



   Contribution                Term         Accumulated
 ------------------------------------------------------
 Na T[4] Nb Nc Nd 12191995.04107653   12191995.04107653
 Na T[3] Nx Nyz  -12965055.79235785    -773060.75128132
 Na X[3] Ny Nz      924780.75149987     151720.00021855
 Nx A[3] Ny Nz      308260.25049996     459980.25071850
 Na X[2] Nyz        122562.92689432     582543.17761282
 Nx A[2] Nyz       -407838.56562789     174704.61198493

@ Cubic response function value in a.u. for
@ A operator, symmetry, frequency:   XDIPLEN    2 -0.058400
@ B operator, symmetry, frequency:   XDIPLEN    2  0.058400
@ C operator, symmetry, frequency:   XDIPLEN    2 -0.058400
@ D operator, symmetry, frequency:   XDIPLEN    2  0.058400

@ << A; B, C, D >>  =      174704.61198493



   Contribution                Term         Accumulated
 ------------------------------------------------------
 Na T[4] Nb Nc Nd    -1893.83460407      -1893.83460407
 Na T[3] Nx Nyz      -3738.13836867      -5631.97297274
 Na X[3] Ny Nz        9759.05346418       4127.08049144
 Nx A[3] Ny Nz        1434.39828100       5561.47877244
 Na X[2] Nyz         -1450.87493163       4110.60384081
 Nx A[2] Nyz         -8022.72315226      -3912.11931146

@ Cubic response function value in a.u. for
@ A operator, symmetry, frequency:   YDIPLEN    3 -0.058400
@ B operator, symmetry, frequency:   YDIPLEN    3  0.058400
@ C operator, symmetry, frequency:   XDIPLEN    2 -0.058400
@ D operator, symmetry, frequency:   XDIPLEN    2  0.058400

@ << A; B, C, D >>  =       -3912.11931146



   Contribution                Term         Accumulated
 ------------------------------------------------------
 Na T[4] Nb Nc Nd    -1812.37303385      -1812.37303385
 Na T[3] Nx Nyz      -4114.24522716      -5926.61826101
 Na X[3] Ny Nz        9318.63885639       3392.02059538
 Nx A[3] Ny Nz        1108.40068686       4500.42128225
 Na X[2] Nyz          -831.58499116       3668.83629109
 Nx A[2] Nyz         -6554.03605519      -2885.19976410

@ Cubic response function value in a.u. for
@ A operator, symmetry, frequency:   YDIPLEN    3 -0.058400
@ B operator, symmetry, frequency:   XDIPLEN    2  0.058400
@ C operator, symmetry, frequency:   YDIPLEN    3 -0.058400
@ D operator, symmetry, frequency:   XDIPLEN    2  0.058400

@ << A; B, C, D >>  =       -2885.19976410



   Contribution                Term         Accumulated
 ------------------------------------------------------
 Na T[4] Nb Nc Nd     -136.73544782       -136.73544782
 Na T[3] Nx Nyz       1093.06514634        956.32969852
 Na X[3] Ny Nz         213.27234621       1169.60204473
 Nx A[3] Ny Nz          54.35098385       1223.95302858
 Na X[2] Nyz         -3506.46644765      -2282.51341907
 Nx A[2] Nyz         -1732.54628237      -4015.05970143

@ Cubic response function value in a.u. for
@ A operator, symmetry, frequency:   ZDIPLEN    1 -0.058400
@ B operator, symmetry, frequency:   YDIPLEN    3  0.058400
@ C operator, symmetry, frequency:   ZDIPLEN    1 -0.058400
@ D operator, symmetry, frequency:   YDIPLEN    3  0.058400

@ << A; B, C, D >>  =       -4015.05970143



   Contribution                Term         Accumulated
 ------------------------------------------------------
 Na T[4] Nb Nc Nd     4690.97831629       4690.97831629
 Na T[3] Nx Nyz       7359.82875112      12050.80706742
 Na X[3] Ny Nz       -5743.87667359       6306.93039383
 Nx A[3] Ny Nz          83.18670740       6390.11710123
 Na X[2] Nyz         -7336.40901418       -946.29191295
 Nx A[2] Nyz         -1923.90408341      -2870.19599636

@ Cubic response function value in a.u. for
@ A operator, symmetry, frequency:   XDIPLEN    2 -0.058400
@ B operator, symmetry, frequency:   YDIPLEN    3  0.058400
@ C operator, symmetry, frequency:   XDIPLEN    2 -0.058400
@ D operator, symmetry, frequency:   YDIPLEN    3  0.058400

@ << A; B, C, D >>  =       -2870.19599636



   Contribution                Term         Accumulated
 ------------------------------------------------------
 Na T[4] Nb Nc Nd     -510.93419951       -510.93419951
 Na T[3] Nx Nyz       2258.91393760       1747.97973809
 Na X[3] Ny Nz        1470.15636360       3218.13610169
 Nx A[3] Ny Nz         490.05212120       3708.18822289
 Na X[2] Nyz         -6712.71894252      -3004.53071963
 Nx A[2] Nyz         -6745.41250290      -9749.94322253

@ Cubic response function value in a.u. for
@ A operator, symmetry, frequency:   YDIPLEN    3 -0.058400
@ B operator, symmetry, frequency:   YDIPLEN    3  0.058400
@ C operator, symmetry, frequency:   YDIPLEN    3 -0.058400
@ D operator, symmetry, frequency:   YDIPLEN    3  0.058400

@ << A; B, C, D >>  =       -9749.94322253



  Summary of gamma values for a set of frequencies
 -------------------------------------------------

@ B-freq:  0.058400
@ C-freq: -0.058400
@ D-freq:  0.058400

@ gamma(X;X,X,X)    -174704.6120
@ gamma(X;X,Y,Y)       3912.1193
@ gamma(X;Y,Y,X)       3912.1193
@ gamma(X;Y,X,Y)       2870.1960
@ gamma(X;X,Z,Z)     927167.0913
@ gamma(X;Z,Z,X)     927167.0913
@ gamma(X;Z,X,Z)     427134.9435
@ gamma(Y;Y,X,X)       3912.1193
@ gamma(Y;X,X,Y)       3912.1193
@ gamma(Y;X,Y,X)       2885.1998
@ gamma(Y;Y,Y,Y)       9749.9432
@ gamma(Y;Y,Z,Z)       4172.5272
@ gamma(Y;Z,Z,Y)       4172.5272
@ gamma(Y;Z,Y,Z)       4011.6510
@ gamma(Z;Z,X,X)     927167.0913
@ gamma(Z;X,X,Z)     927167.0913
@ gamma(Z;X,Z,X)     427174.6042
@ gamma(Z;Z,Y,Y)       4172.5272
@ gamma(Z;Y,Y,Z)       4172.5272
@ gamma(Z;Y,Z,Y)       4015.0597
@ gamma(Z;Z,Z,Z)      35016.4147

@ Averaged gamma parallel to the applied field is    281285.589556

  Total CPU  time used in RESPONSE:   7 hours 27 minutes 52 seconds
  Total wall time used in RESPONSE:   7 hours 28 minutes  4 seconds


                   .-------------------------------------------.
                   | End of Dynamic Property Section (RESPONS) |
                   `-------------------------------------------'

  Total CPU  time used in DALTON:   8 hours 47 minutes 35 seconds
  Total wall time used in DALTON:   8 hours 47 minutes 51 seconds

 
     Date and time (Linux)  : Wed Feb 12 08:08:20 2020
     Host name              : Lab2-333-NPs                            
