

     ************************************************************************
     *************** Dalton - An Electronic Structure Program ***************
     ************************************************************************

    This is output from DALTON release Dalton2018.1 (2019)
         ( Web site: http://daltonprogram.org )

   ----------------------------------------------------------------------------

    NOTE:
     
    Dalton is an experimental code for the evaluation of molecular
    properties using (MC)SCF, DFT, CI, and CC wave functions.
    The authors accept no responsibility for the performance of
    the code or for the correctness of the results.
     
    The code (in whole or part) is provided under a licence and
    is not to be reproduced for further distribution without
    the written permission of the authors or their representatives.
     
    See the home page "http://daltonprogram.org" for further information.
     
    If results obtained with this code are published,
    the appropriate citations would be both of:
     
       K. Aidas, C. Angeli, K. L. Bak, V. Bakken, R. Bast,
       L. Boman, O. Christiansen, R. Cimiraglia, S. Coriani,
       P. Dahle, E. K. Dalskov, U. Ekstroem,
       T. Enevoldsen, J. J. Eriksen, P. Ettenhuber, B. Fernandez,
       L. Ferrighi, H. Fliegl, L. Frediani, K. Hald, A. Halkier,
       C. Haettig, H. Heiberg, T. Helgaker, A. C. Hennum,
       H. Hettema, E. Hjertenaes, S. Hoest, I.-M. Hoeyvik,
       M. F. Iozzi, B. Jansik, H. J. Aa. Jensen, D. Jonsson,
       P. Joergensen, J. Kauczor, S. Kirpekar,
       T. Kjaergaard, W. Klopper, S. Knecht, R. Kobayashi, H. Koch,
       J. Kongsted, A. Krapp, K. Kristensen, A. Ligabue,
       O. B. Lutnaes, J. I. Melo, K. V. Mikkelsen, R. H. Myhre,
       C. Neiss, C. B. Nielsen, P. Norman, J. Olsen,
       J. M. H. Olsen, A. Osted, M. J. Packer, F. Pawlowski,
       T. B. Pedersen, P. F. Provasi, S. Reine, Z. Rinkevicius,
       T. A. Ruden, K. Ruud, V. Rybkin, P. Salek, C. C. M. Samson,
       A. Sanchez de Meras, T. Saue, S. P. A. Sauer,
       B. Schimmelpfennig, K. Sneskov, A. H. Steindal,
       K. O. Sylvester-Hvid, P. R. Taylor, A. M. Teale,
       E. I. Tellgren, D. P. Tew, A. J. Thorvaldsen, L. Thoegersen,
       O. Vahtras, M. A. Watson, D. J. D. Wilson, M. Ziolkowski
       and H. Agren,
       "The Dalton quantum chemistry program system",
       WIREs Comput. Mol. Sci. 2014, 4:269–284 (doi: 10.1002/wcms.1172)
     
    and
     
       Dalton, a molecular electronic structure program,
       Release Dalton2018.1 (2019), see http://daltonprogram.org
   ----------------------------------------------------------------------------

    Authors in alphabetical order (major contribution(s) in parenthesis):

  Kestutis Aidas,           Vilnius University,           Lithuania   (QM/MM)
  Celestino Angeli,         University of Ferrara,        Italy       (NEVPT2)
  Keld L. Bak,              UNI-C,                        Denmark     (AOSOPPA, non-adiabatic coupling, magnetic properties)
  Vebjoern Bakken,          University of Oslo,           Norway      (DALTON; geometry optimizer, symmetry detection)
  Radovan Bast,             UiT The Arctic U. of Norway,  Norway      (DALTON installation and execution frameworks)
  Pablo Baudin,             University of Valencia,       Spain       (Cholesky excitation energies)
  Linus Boman,              NTNU,                         Norway      (Cholesky decomposition and subsystems)
  Ove Christiansen,         Aarhus University,            Denmark     (CC module)
  Renzo Cimiraglia,         University of Ferrara,        Italy       (NEVPT2)
  Sonia Coriani,            Technical Univ. of Denmark,   Denmark     (CC module, MCD in RESPONS)
  Janusz Cukras,            University of Trieste,        Italy       (MChD in RESPONS)
  Paal Dahle,               University of Oslo,           Norway      (Parallelization)
  Erik K. Dalskov,          UNI-C,                        Denmark     (SOPPA)
  Thomas Enevoldsen,        Univ. of Southern Denmark,    Denmark     (SOPPA)
  Janus J. Eriksen,         Aarhus University,            Denmark     (Polarizable embedding model, TDA)
  Rasmus Faber,             University of Copenhagen,     Denmark     (Vib.avg. NMR with SOPPA, parallel AO-SOPPA)
  Tobias Fahleson,          KTH Stockholm,                Sweden      (Damped cubic response)
  Berta Fernandez,          U. of Santiago de Compostela, Spain       (doublet spin, ESR in RESPONS)
  Lara Ferrighi,            Aarhus University,            Denmark     (PCM Cubic response)
  Heike Fliegl,             University of Oslo,           Norway      (CCSD(R12))
  Luca Frediani,            UiT The Arctic U. of Norway,  Norway      (PCM)
  Bin Gao,                  UiT The Arctic U. of Norway,  Norway      (Gen1Int library)
  Christof Haettig,         Ruhr-University Bochum,       Germany     (CC module)
  Kasper Hald,              Aarhus University,            Denmark     (CC module)
  Asger Halkier,            Aarhus University,            Denmark     (CC module)
  Frederik Beyer Hansen,    University of Copenhagen,     Denmark     (Parallel AO-SOPPA)
  Erik D. Hedegaard,        Univ. of Southern Denmark,    Denmark     (Polarizable embedding model, QM/MM)
  Hanne Heiberg,            University of Oslo,           Norway      (geometry analysis, selected one-electron integrals)
  Trygve Helgaker,          University of Oslo,           Norway      (DALTON; ABACUS, ERI, DFT modules, London, and much more)
  Alf Christian Hennum,     University of Oslo,           Norway      (Parity violation)
  Hinne Hettema,            University of Auckland,       New Zealand (quadratic response in RESPONS; SIRIUS supersymmetry)
  Eirik Hjertenaes,         NTNU,                         Norway      (Cholesky decomposition)
  Pi A. B. Haase,           University of Copenhagen,     Denmark     (Triplet AO-SOPPA)
  Maria Francesca Iozzi,    University of Oslo,           Norway      (RPA)
  Christoph Jacob           TU Braunschweig               Germany     (Frozen density embedding model)
  Brano Jansik              Technical Univ. of Ostrava    Czech Rep.  (DFT cubic response)
  Hans Joergen Aa. Jensen,  Univ. of Southern Denmark,    Denmark     (DALTON; SIRIUS, RESPONS, ABACUS modules, London, and much more)
  Dan Jonsson,              UiT The Arctic U. of Norway,  Norway      (cubic response in RESPONS module)
  Poul Joergensen,          Aarhus University,            Denmark     (RESPONS, ABACUS, and CC modules)
  Maciej Kaminski,          University of Warsaw,         Poland      (CPPh in RESPONS)
  Joanna Kauczor,           Linkoeping University,        Sweden      (Complex polarization propagator (CPP) module)
  Sheela Kirpekar,          Univ. of Southern Denmark,    Denmark     (Mass-velocity & Darwin integrals)
  Wim Klopper,              KIT Karlsruhe,                Germany     (R12 code in CC, SIRIUS, and ABACUS modules)
  Stefan Knecht,            ETH Zurich,                   Switzerland (Parallel CI and MCSCF)
  Rika Kobayashi,           Australian National Univ.,    Australia   (DIIS in CC, London in MCSCF)
  Henrik Koch,              NTNU,                         Norway      (CC module, Cholesky decomposition)
  Jacob Kongsted,           Univ. of Southern Denmark,    Denmark     (Polarizable embedding model, QM/MM)
  Andrea Ligabue,           University of Modena,         Italy       (CTOCD, AOSOPPA)
  Nanna H. List             Univ. of Southern Denmark,    Denmark     (Polarizable embedding model)
  Ola B. Lutnaes,           University of Oslo,           Norway      (DFT Hessian)
  Juan I. Melo,             University of Buenos Aires,   Argentina   (LRESC, Relativistic Effects on NMR Shieldings)
  Kurt V. Mikkelsen,        University of Copenhagen,     Denmark     (MC-SCRF and QM/MM)
  Rolf H. Myhre,            NTNU,                         Norway      (Subsystems and CC3)
  Christian Neiss,          Univ. Erlangen-Nuernberg,     Germany     (CCSD(R12))
  Christian B. Nielsen,     University of Copenhagen,     Denmark     (QM/MM)
  Patrick Norman,           KTH Stockholm,                Sweden      (Cubic response and complex frequency response in RESPONS)
  Jeppe Olsen,              Aarhus University,            Denmark     (SIRIUS CI/density modules)
  Jogvan Magnus H. Olsen,   Univ. of Southern Denmark,    Denmark     (Polarizable embedding model, QM/MM)
  Anders Osted,             Copenhagen University,        Denmark     (QM/MM)
  Martin J. Packer,         University of Sheffield,      UK          (SOPPA)
  Filip Pawlowski,          Kazimierz Wielki University,  Poland      (CC3)
  Morten N. Pedersen,       Univ. of Southern Denmark,    Denmark     (Polarizable embedding model)
  Thomas B. Pedersen,       University of Oslo,           Norway      (Cholesky decomposition)
  Patricio F. Provasi,      University of Northeastern,   Argentina   (Analysis of coupling constants in localized orbitals)
  Zilvinas Rinkevicius,     KTH Stockholm,                Sweden      (open-shell DFT, ESR)
  Elias Rudberg,            KTH Stockholm,                Sweden      (DFT grid and basis info)
  Torgeir A. Ruden,         University of Oslo,           Norway      (Numerical derivatives in ABACUS)
  Kenneth Ruud,             UiT The Arctic U. of Norway,  Norway      (DALTON; ABACUS magnetic properties and much more)
  Pawel Salek,              KTH Stockholm,                Sweden      (DALTON; DFT code)
  Claire C. M. Samson       University of Karlsruhe       Germany     (Boys localization, r12 integrals in ERI)
  Alfredo Sanchez de Meras, University of Valencia,       Spain       (CC module, Cholesky decomposition)
  Trond Saue,               Paul Sabatier University,     France      (direct Fock matrix construction)
  Stephan P. A. Sauer,      University of Copenhagen,     Denmark     (SOPPA(CCSD), SOPPA prop., AOSOPPA, vibrational g-factors)
  Andre S. P. Gomes,        CNRS/Universite de Lille,     France      (Frozen density embedding model)
  Bernd Schimmelpfennig,    Forschungszentrum Karlsruhe,  Germany     (AMFI module)
  Kristian Sneskov,         Aarhus University,            Denmark     (Polarizable embedding model, QM/MM)
  Arnfinn H. Steindal,      UiT The Arctic U. of Norway,  Norway      (parallel QM/MM, Polarizable embedding model)
  Casper Steinmann,         Univ. of Southern Denmark,    Denmark     (QFIT, Polarizable embedding model)
  K. O. Sylvester-Hvid,     University of Copenhagen,     Denmark     (MC-SCRF)
  Peter R. Taylor,          VLSCI/Univ. of Melbourne,     Australia   (Symmetry handling ABACUS, integral transformation)
  Andrew M. Teale,          University of Nottingham,     England     (DFT-AC, DFT-D)
  David P. Tew,             University of Bristol,        England     (CCSD(R12))
  Olav Vahtras,             KTH Stockholm,                Sweden      (triplet response, spin-orbit, ESR, TDDFT, open-shell DFT)
  Lucas Visscher,           Vrije Universiteit Amsterdam, Netherlands (Frozen density embedding model)
  David J. Wilson,          La Trobe University,          Australia   (DFT Hessian and DFT magnetizabilities)
  Hans Agren,               KTH Stockholm,                Sweden      (SIRIUS module, RESPONS, MC-SCRF solvation model)
 --------------------------------------------------------------------------------

     Date and time (Linux)  : Sat Feb 15 12:30:58 2020
     Host name              : Lab2-333-NPs                            

 * Work memory size             :  1024000000 =  7.629 gigabytes.

 * Directories for basis set searches:
   1) /home/lab333/dalton/build_2018_atlas
   2) /home/lab333/dalton/build_2018_atlas/basis


Compilation information
-----------------------

 Who compiled             | lab333
 Host                     | Lab2-333-NPs
 System                   | Linux-4.4.0-43-Microsoft
 CMake generator          | Unix Makefiles
 Processor                | x86_64
 64-bit integers          | OFF
 MPI                      | OFF
 Fortran compiler         | /usr/bin/gfortran
 Fortran compiler version | GNU Fortran (Ubuntu 7.3.0-27ubuntu1~18.04) 7.3.0
 C compiler               | /usr/bin/gcc
 C compiler version       | gcc (Ubuntu 7.3.0-27ubuntu1~18.04) 7.3.0
 C++ compiler             | /usr/bin/g++
 C++ compiler version     | g++ (Ubuntu 7.3.0-27ubuntu1~18.04) 7.3.0
 BLAS                     | /usr/lib/x86_64-linux-gnu/libf77blas.so;/usr/lib/x
                          | 86_64-linux-gnu/libcblas.so;/usr/lib/x86_64-linux-
                          | gnu/libatlas.so
 LAPACK                   | /usr/lib/x86_64-linux-gnu/libatlas.so;/usr/lib/x86
                          | _64-linux-gnu/atlas/liblapack.so
 Static linking           | OFF
 Last Git revision        | da625bf48c74028e805616daee31bc5d76b3a20d
 Git branch               | (HEAD detached at Dalton2018.1)
 Configuration time       | 2019-01-18 10:20:51.437510


   Content of the .dal input file
 ----------------------------------

**DALTON INPUT
.RUN RESPONSE
.DIRECT
**WAVE FUNCTIONS
.HF
.MP2
.MCSCF
*CONFIGURATION INPUT
.SPIN MULTIPLICITY
3
.SYMMETRY
1
.INACTIVE ORBITALS
15 10 2 0
.CAS SPACE
1 1 2 3
.ELECTRONS
10
*ORBITAL INPUT
.MOSTART
.HUCKEL
*OPTIMIZATION
.DETERMINANTS
.STATE
1
*CI VECTOR
.PLUS COMBINATIONS
**RESPONSE
*CUBIC
.DIPLEN
.BFREQ
1
0.0584
.CFREQ
1
-0.0584
.DFREQ
1
0.0584
**END OF DALTON INPUT


   Content of the .mol file
 ----------------------------

BASIS
aug-cc-pCVDZ
 nitrobenzene
 Generated by the Dalton Input File Plugin for Avogadro
Atomtypes=4 Angstrom Generators=2 X Y
Charge=6.0 Atoms=4
C        0.0000000000            0.0000000000           -0.0265759623
C       -1.2190534920            0.0000000000           -0.6979856948
C       -1.2105095870            0.0000000000           -2.0897394457
C        0.0000000000            0.0000000000           -2.7841484631
Charge=7.0 Atoms=1
N        0.0000000000            0.0000000000            1.4549291696
Charge=8.0 Atoms=1
O       1.1291110386793457            0.0            1.9294321793041695
Charge=1.0 Atoms=3
H       -2.1410602955            0.0000000000           -0.1327964319
H       -2.1492827751            0.0000000000           -2.6311811056
H        0.0000000000            0.0000000000           -3.8683953478


       *******************************************************************
       *********** Output from DALTON general input processing ***********
       *******************************************************************

 --------------------------------------------------------------------------------
   Overall default print level:    0
   Print level for DALTON.STAT:    1

    AO-direct calculation (in sections where implemented)
    HERMIT 1- and 2-electron integral sections will be executed
    "Old" integral transformation used (limited to max 255 basis functions)
    Wave function sections will be executed (SIRIUS module)
    Dynamic molecular response properties section will be executed (RESPONSE module)
 --------------------------------------------------------------------------------


   ****************************************************************************
   *************** Output of molecule and basis set information ***************
   ****************************************************************************


    The two title cards from your ".mol" input:
    ------------------------------------------------------------------------
 1:  nitrobenzene                                                           
 2:  Generated by the Dalton Input File Plugin for Avogadro                 
    ------------------------------------------------------------------------

  Coordinates are entered in Angstrom and converted to atomic units.
          - Conversion factor : 1 bohr = 0.52917721 A

  Atomic type no.    1
  --------------------
  Nuclear charge:   6.00000
  Number of symmetry independent centers:    4
  Number of basis sets to read;    2
  Basis set file used for this atomic type with Z =   6 :
     "/home/lab333/dalton/build_2018_atlas/basis/aug-cc-pCVDZ"

  Atomic type no.    2
  --------------------
  Nuclear charge:   7.00000
  Number of symmetry independent centers:    1
  Number of basis sets to read;    2
  Basis set file used for this atomic type with Z =   7 :
     "/home/lab333/dalton/build_2018_atlas/basis/aug-cc-pCVDZ"

  Atomic type no.    3
  --------------------
  Nuclear charge:   8.00000
  Number of symmetry independent centers:    1
  Number of basis sets to read;    2
  Basis set file used for this atomic type with Z =   8 :
     "/home/lab333/dalton/build_2018_atlas/basis/aug-cc-pCVDZ"

  Atomic type no.    4
  --------------------
  Nuclear charge:   1.00000
  Number of symmetry independent centers:    3
  Number of basis sets to read;    2
  Basis set file used for this atomic type with Z =   1 :
     "/home/lab333/dalton/build_2018_atlas/basis/aug-cc-pCVDZ"


                         SYMGRP: Point group information
                         -------------------------------

@    Point group: C2v

@  * The irrep name for each symmetry:    1: A1     2: B1     3: B2     4: A2 

   * The point group was generated by:

      Reflection in the yz-plane
      Reflection in the xz-plane

   * Group multiplication table

        |  E   C2z  Oxz  Oyz
   -----+--------------------
     E  |  E   C2z  Oxz  Oyz
    C2z | C2z   E   Oyz  Oxz
    Oxz | Oxz  Oyz   E   C2z
    Oyz | Oyz  Oxz  C2z   E 

   * Character table

        |  E   C2z  Oxz  Oyz
   -----+--------------------
    A1  |   1    1    1    1
    B1  |   1   -1    1   -1
    B2  |   1   -1   -1    1
    A2  |   1    1   -1   -1

   * Direct product table

        | A1   B1   B2   A2 
   -----+--------------------
    A1  | A1   B1   B2   A2 
    B1  | B1   A1   A2   B2 
    B2  | B2   A2   A1   B1 
    A2  | A2   B2   B1   A1 


                                 Isotopic Masses
                                 ---------------

                           C          12.000000
                           C   _1     12.000000
                           C   _2     12.000000
                           C   _1     12.000000
                           C   _2     12.000000
                           C          12.000000
                           N          14.003074
                           O   _1     15.994915
                           O   _2     15.994915
                           H   _1      1.007825
                           H   _2      1.007825
                           H   _1      1.007825
                           H   _2      1.007825
                           H           1.007825

                       Total mass:   123.032029 amu
                       Natural abundance:  92.716 %

 Center-of-mass coordinates (a.u.):    0.000000    0.000000   -0.430197


  Atoms and basis sets
  --------------------

  Number of atom types :    4
  Total number of atoms:   14

  Basis set used is "aug-cc-pCVDZ" from the basis set library.

  label    atoms   charge   prim   cont     basis
  ----------------------------------------------------------------------
  C           6    6.0000    39    27      [11s6p2d|5s4p2d]                                   
  N           1    7.0000    39    27      [11s6p2d|5s4p2d]                                   
  O           2    8.0000    39    27      [11s6p2d|5s4p2d]                                   
  H           5    1.0000    11     9      [5s2p|3s2p]                                        
  ----------------------------------------------------------------------
  total:     14   64.0000   406   288
  ----------------------------------------------------------------------
  Spherical harmonic basis used.

  Threshold for neglecting AO integrals:  1.00D-12


  Symmetry Coordinates
  --------------------

  Number of coordinates in each symmetry:    14   14    9    5


   Interatomic separations (in Angstrom):
   --------------------------------------

            C           C   _1      C   _2      C   _1      C   _2      C     
            ------      ------      ------      ------      ------      ------
 C     :    0.000000
 C   _1:    1.391719    0.000000
 C   _2:    1.391719    2.438107    0.000000
 C   _1:    2.392065    1.391780    2.799956    0.000000
 C   _2:    2.392065    2.799956    1.391780    2.421019    0.000000
 C     :    2.757573    2.416230    2.416230    1.395542    1.395542    0.000000
 N     :    1.481505    2.474093    2.474093    3.745665    3.745665    4.239078
 O   _1:    2.258508    3.523805    2.628957    4.650545    4.019996    4.846930
 O   _2:    2.258508    2.628957    3.523805    4.019996    4.650545    4.846930
 H   _1:    2.143694    1.081451    3.407316    2.166922    3.881063    3.407904
 H   _2:    2.143694    3.407316    1.081451    3.881063    2.166922    3.407904
 H   _1:    3.376890    2.145360    3.883675    1.083722    3.403140    2.154719
 H   _2:    3.376890    3.883675    2.145360    3.403140    1.083722    2.154719
 H     :    3.841819    3.396703    3.396703    2.151500    2.151500    1.084247

            N           O   _1      O   _2      H   _1      H   _2      H   _1
            ------      ------      ------      ------      ------      ------
 N     :    0.000000
 O   _1:    1.224763    0.000000
 O   _2:    1.224763    2.258222    0.000000
 H   _1:    2.665523    3.866110    2.297135    0.000000
 H   _2:    2.665523    2.297135    3.866110    4.282121    0.000000
 H   _1:    4.616894    5.616677    4.673323    2.498398    4.964773    0.000000
 H   _2:    4.616894    4.673323    5.616677    4.964773    2.498398    4.298566
 H     :    5.323325    5.906750    5.906750    4.305675    4.305675    2.479943

            H   _2      H     
            ------      ------
 H   _2:    0.000000
 H     :    2.479943    0.000000


  Max    interatomic separation is    5.9068 Angstrom (   11.1621 Bohr)
  between atoms   14 and    8, "H     " and "O   _1".

  Min HX interatomic separation is    1.0815 Angstrom (    2.0436 Bohr)

  Min YX interatomic separation is    1.2248 Angstrom (    2.3145 Bohr)


  Bond distances (Angstrom):
  --------------------------

                  atom 1     atom 2       distance
                  ------     ------       --------
  bond distance:  C   _1     C            1.391719
  bond distance:  C   _2     C            1.391719
  bond distance:  C   _1     C   _1       1.391780
  bond distance:  C   _2     C   _2       1.391780
  bond distance:  C          C   _1       1.395542
  bond distance:  C          C   _2       1.395542
  bond distance:  N          C            1.481505
  bond distance:  O   _1     N            1.224763
  bond distance:  O   _2     N            1.224763
  bond distance:  H   _1     C   _1       1.081451
  bond distance:  H   _2     C   _2       1.081451
  bond distance:  H   _1     C   _1       1.083722
  bond distance:  H   _2     C   _2       1.083722
  bond distance:  H          C            1.084247


  Bond angles (degrees):
  ----------------------

                  atom 1     atom 2     atom 3         angle
                  ------     ------     ------         -----
  bond angle:     C   _1     C          C   _2       122.311
  bond angle:     C   _1     C          N            118.844
  bond angle:     C   _2     C          N            118.844
  bond angle:     C          C   _1     C   _1       118.493
  bond angle:     C          C   _1     H   _1       119.647
  bond angle:     C   _1     C   _1     H   _1       121.860
  bond angle:     C          C   _2     C   _2       118.493
  bond angle:     C          C   _2     H   _2       119.647
  bond angle:     C   _2     C   _2     H   _2       121.860
  bond angle:     C   _1     C   _1     C            120.192
  bond angle:     C   _1     C   _1     H   _1       119.623
  bond angle:     C          C   _1     H   _1       120.185
  bond angle:     C   _2     C   _2     C            120.192
  bond angle:     C   _2     C   _2     H   _2       119.623
  bond angle:     C          C   _2     H   _2       120.185
  bond angle:     C   _1     C          C   _2       120.319
  bond angle:     C   _1     C          H            119.841
  bond angle:     C   _2     C          H            119.841
  bond angle:     C          N          O   _1       112.794
  bond angle:     C          N          O   _2       112.794
  bond angle:     O   _1     N          O   _2       134.411




 Principal moments of inertia (u*A**2) and principal axes
 --------------------------------------------------------

   IA     130.168914          0.000000    0.000000    1.000000
   IB     380.953336          1.000000    0.000000    0.000000
   IC     511.122250          0.000000    1.000000    0.000000


 Rotational constants
 --------------------

@    The molecule is planar.

               A                   B                   C

           3882.4862           1326.6166            988.7635 MHz
            0.129506            0.044251            0.032982 cm-1


@  Nuclear repulsion energy :  413.807617726069 Hartree


  Symmetry Orbitals
  -----------------

  Number of orbitals in each symmetry:         115   91   48   34


  Symmetry  A1 ( 1)

    1     C        1s         1
    2     C        1s         2
    3     C        1s         3
    4     C        1s         4
    5     C        1s         5
    6     C        2pz        8
    7     C        2pz       11
    8     C        2pz       14
    9     C        2pz       17
   10     C        3d0       20
   11     C        3d2+      22
   12     C        3d0       25
   13     C        3d2+      27
   14     C        1s        28 +   29
   15     C        1s        30 +   31
   16     C        1s        32 +   33
   17     C        1s        34 +   35
   18     C        1s        36 +   37
   19     C        2px       38 -   39
   20     C        2pz       42 +   43
   21     C        2px       44 -   45
   22     C        2pz       48 +   49
   23     C        2px       50 -   51
   24     C        2pz       54 +   55
   25     C        2px       56 -   57
   26     C        2pz       60 +   61
   27     C        3d0       66 +   67
   28     C        3d1+      68 -   69
   29     C        3d2+      70 +   71
   30     C        3d0       76 +   77
   31     C        3d1+      78 -   79
   32     C        3d2+      80 +   81
   33     C        1s        82 +   83
   34     C        1s        84 +   85
   35     C        1s        86 +   87
   36     C        1s        88 +   89
   37     C        1s        90 +   91
   38     C        2px       92 -   93
   39     C        2pz       96 +   97
   40     C        2px       98 -   99
   41     C        2pz      102 +  103
   42     C        2px      104 -  105
   43     C        2pz      108 +  109
   44     C        2px      110 -  111
   45     C        2pz      114 +  115
   46     C        3d0      120 +  121
   47     C        3d1+     122 -  123
   48     C        3d2+     124 +  125
   49     C        3d0      130 +  131
   50     C        3d1+     132 -  133
   51     C        3d2+     134 +  135
   52     C        1s       136
   53     C        1s       137
   54     C        1s       138
   55     C        1s       139
   56     C        1s       140
   57     C        2pz      143
   58     C        2pz      146
   59     C        2pz      149
   60     C        2pz      152
   61     C        3d0      155
   62     C        3d2+     157
   63     C        3d0      160
   64     C        3d2+     162
   65     N        1s       163
   66     N        1s       164
   67     N        1s       165
   68     N        1s       166
   69     N        1s       167
   70     N        2pz      170
   71     N        2pz      173
   72     N        2pz      176
   73     N        2pz      179
   74     N        3d0      182
   75     N        3d2+     184
   76     N        3d0      187
   77     N        3d2+     189
   78     O        1s       190 +  191
   79     O        1s       192 +  193
   80     O        1s       194 +  195
   81     O        1s       196 +  197
   82     O        1s       198 +  199
   83     O        2px      200 -  201
   84     O        2pz      204 +  205
   85     O        2px      206 -  207
   86     O        2pz      210 +  211
   87     O        2px      212 -  213
   88     O        2pz      216 +  217
   89     O        2px      218 -  219
   90     O        2pz      222 +  223
   91     O        3d0      228 +  229
   92     O        3d1+     230 -  231
   93     O        3d2+     232 +  233
   94     O        3d0      238 +  239
   95     O        3d1+     240 -  241
   96     O        3d2+     242 +  243
   97     H        1s       244 +  245
   98     H        1s       246 +  247
   99     H        1s       248 +  249
  100     H        2px      250 -  251
  101     H        2pz      254 +  255
  102     H        2px      256 -  257
  103     H        2pz      260 +  261
  104     H        1s       262 +  263
  105     H        1s       264 +  265
  106     H        1s       266 +  267
  107     H        2px      268 -  269
  108     H        2pz      272 +  273
  109     H        2px      274 -  275
  110     H        2pz      278 +  279
  111     H        1s       280
  112     H        1s       281
  113     H        1s       282
  114     H        2pz      285
  115     H        2pz      288


  Symmetry  B1 ( 2)

  116     C        2px        6
  117     C        2px        9
  118     C        2px       12
  119     C        2px       15
  120     C        3d1+      21
  121     C        3d1+      26
  122     C        1s        28 -   29
  123     C        1s        30 -   31
  124     C        1s        32 -   33
  125     C        1s        34 -   35
  126     C        1s        36 -   37
  127     C        2px       38 +   39
  128     C        2pz       42 -   43
  129     C        2px       44 +   45
  130     C        2pz       48 -   49
  131     C        2px       50 +   51
  132     C        2pz       54 -   55
  133     C        2px       56 +   57
  134     C        2pz       60 -   61
  135     C        3d0       66 -   67
  136     C        3d1+      68 +   69
  137     C        3d2+      70 -   71
  138     C        3d0       76 -   77
  139     C        3d1+      78 +   79
  140     C        3d2+      80 -   81
  141     C        1s        82 -   83
  142     C        1s        84 -   85
  143     C        1s        86 -   87
  144     C        1s        88 -   89
  145     C        1s        90 -   91
  146     C        2px       92 +   93
  147     C        2pz       96 -   97
  148     C        2px       98 +   99
  149     C        2pz      102 -  103
  150     C        2px      104 +  105
  151     C        2pz      108 -  109
  152     C        2px      110 +  111
  153     C        2pz      114 -  115
  154     C        3d0      120 -  121
  155     C        3d1+     122 +  123
  156     C        3d2+     124 -  125
  157     C        3d0      130 -  131
  158     C        3d1+     132 +  133
  159     C        3d2+     134 -  135
  160     C        2px      141
  161     C        2px      144
  162     C        2px      147
  163     C        2px      150
  164     C        3d1+     156
  165     C        3d1+     161
  166     N        2px      168
  167     N        2px      171
  168     N        2px      174
  169     N        2px      177
  170     N        3d1+     183
  171     N        3d1+     188
  172     O        1s       190 -  191
  173     O        1s       192 -  193
  174     O        1s       194 -  195
  175     O        1s       196 -  197
  176     O        1s       198 -  199
  177     O        2px      200 +  201
  178     O        2pz      204 -  205
  179     O        2px      206 +  207
  180     O        2pz      210 -  211
  181     O        2px      212 +  213
  182     O        2pz      216 -  217
  183     O        2px      218 +  219
  184     O        2pz      222 -  223
  185     O        3d0      228 -  229
  186     O        3d1+     230 +  231
  187     O        3d2+     232 -  233
  188     O        3d0      238 -  239
  189     O        3d1+     240 +  241
  190     O        3d2+     242 -  243
  191     H        1s       244 -  245
  192     H        1s       246 -  247
  193     H        1s       248 -  249
  194     H        2px      250 +  251
  195     H        2pz      254 -  255
  196     H        2px      256 +  257
  197     H        2pz      260 -  261
  198     H        1s       262 -  263
  199     H        1s       264 -  265
  200     H        1s       266 -  267
  201     H        2px      268 +  269
  202     H        2pz      272 -  273
  203     H        2px      274 +  275
  204     H        2pz      278 -  279
  205     H        2px      283
  206     H        2px      286


  Symmetry  B2 ( 3)

  207     C        2py        7
  208     C        2py       10
  209     C        2py       13
  210     C        2py       16
  211     C        3d1-      19
  212     C        3d1-      24
  213     C        2py       40 +   41
  214     C        2py       46 +   47
  215     C        2py       52 +   53
  216     C        2py       58 +   59
  217     C        3d2-      62 -   63
  218     C        3d1-      64 +   65
  219     C        3d2-      72 -   73
  220     C        3d1-      74 +   75
  221     C        2py       94 +   95
  222     C        2py      100 +  101
  223     C        2py      106 +  107
  224     C        2py      112 +  113
  225     C        3d2-     116 -  117
  226     C        3d1-     118 +  119
  227     C        3d2-     126 -  127
  228     C        3d1-     128 +  129
  229     C        2py      142
  230     C        2py      145
  231     C        2py      148
  232     C        2py      151
  233     C        3d1-     154
  234     C        3d1-     159
  235     N        2py      169
  236     N        2py      172
  237     N        2py      175
  238     N        2py      178
  239     N        3d1-     181
  240     N        3d1-     186
  241     O        2py      202 +  203
  242     O        2py      208 +  209
  243     O        2py      214 +  215
  244     O        2py      220 +  221
  245     O        3d2-     224 -  225
  246     O        3d1-     226 +  227
  247     O        3d2-     234 -  235
  248     O        3d1-     236 +  237
  249     H        2py      252 +  253
  250     H        2py      258 +  259
  251     H        2py      270 +  271
  252     H        2py      276 +  277
  253     H        2py      284
  254     H        2py      287


  Symmetry  A2 ( 4)

  255     C        3d2-      18
  256     C        3d2-      23
  257     C        2py       40 -   41
  258     C        2py       46 -   47
  259     C        2py       52 -   53
  260     C        2py       58 -   59
  261     C        3d2-      62 +   63
  262     C        3d1-      64 -   65
  263     C        3d2-      72 +   73
  264     C        3d1-      74 -   75
  265     C        2py       94 -   95
  266     C        2py      100 -  101
  267     C        2py      106 -  107
  268     C        2py      112 -  113
  269     C        3d2-     116 +  117
  270     C        3d1-     118 -  119
  271     C        3d2-     126 +  127
  272     C        3d1-     128 -  129
  273     C        3d2-     153
  274     C        3d2-     158
  275     N        3d2-     180
  276     N        3d2-     185
  277     O        2py      202 -  203
  278     O        2py      208 -  209
  279     O        2py      214 -  215
  280     O        2py      220 -  221
  281     O        3d2-     224 +  225
  282     O        3d1-     226 -  227
  283     O        3d2-     234 +  235
  284     O        3d1-     236 -  237
  285     H        2py      252 -  253
  286     H        2py      258 -  259
  287     H        2py      270 -  271
  288     H        2py      276 -  277

  Symmetries of electric field:  B1 (2)  B2 (3)  A1 (1)

  Symmetries of magnetic field:  B2 (3)  B1 (2)  A2 (4)


                     .---------------------------------------.
                     | Starting in Integral Section (HERMIT) |
                     `---------------------------------------'



 ***************************************************************************************
 ****************** Output from **INTEGRALS input processing (HERMIT) ******************
 ***************************************************************************************


 - Using defaults, no **INTEGRALS input found

 Default print level:        1

 Calculation of one-electron Hamiltonian integrals.

 Center of mass  (bohr):      0.000000000000      0.000000000000     -0.430196823581
 Operator center (bohr):      0.000000000000      0.000000000000      0.000000000000
 Gauge origin    (bohr):      0.000000000000      0.000000000000      0.000000000000
 Dipole origin   (bohr):      0.000000000000      0.000000000000      0.000000000000


     ************************************************************************
     ************************** Output from HERINT **************************
     ************************************************************************



                      Nuclear contribution to dipole moments
                      --------------------------------------

                 au               Debye          C m (/(10**-30)

      z    -35.25847150       -89.61808975      -298.93377021


  Time used in GABGEN     is       0.12 seconds
  Total CPU  time used in HERMIT:   0.42 seconds
  Total wall time used in HERMIT:   0.42 seconds


                        .----------------------------------.
                        | End of Integral Section (HERMIT) |
                        `----------------------------------'



                   .--------------------------------------------.
                   | Starting in Wave Function Section (SIRIUS) |
                   `--------------------------------------------'


 *** Output from Huckel module :

     Using EWMO model:          F
     Using EHT  model:          T
     Number of Huckel orbitals each symmetry:   24   17    6    3

 Huckel EHT eigenvalues for symmetry :  1
          -20.694346     -15.706041     -11.415054     -11.394653     -11.376771
          -11.362605      -1.751304      -1.551239      -1.186521      -0.937430
           -0.814913      -0.792838      -0.638613      -0.585760      -0.485328
           -0.427021      -0.337319      -0.248603      -0.226286      -0.213763
           -0.205797      -0.178734      -0.166168      -0.160474

 Huckel EHT eigenvalues for symmetry :  2
          -20.702386     -11.396486     -11.377864      -1.419755      -1.201667
           -0.878478      -0.644648      -0.579828      -0.525962      -0.476562
           -0.414387      -0.264423      -0.213014      -0.202819      -0.176222
           -0.165350      -0.163265

 Huckel EHT eigenvalues for symmetry :  3
           -0.801435      -0.669190      -0.463388      -0.385011      -0.281861
           -0.236549

 Huckel EHT eigenvalues for symmetry :  4
           -0.596336      -0.459950      -0.288779

 **********************************************************************
 *SIRIUS* a direct, restricted step, second order MCSCF program       *
 **********************************************************************

 
     Date and time (Linux)  : Sat Feb 15 12:30:59 2020
     Host name              : Lab2-333-NPs                            

 Title lines from ".mol" input file:
      nitrobenzene                                                           
      Generated by the Dalton Input File Plugin for Avogadro                 

 Print level on unit LUPRI =   2 is   0
 Print level on unit LUW4  =   2 is   5

@    MC-SCF optimization.

@    Multi-configurational response calculation.
@              Type: complete active space calculation (CAS).

@    This is a combination run starting with
@              a restricted, closed shell Hartree-Fock calculation
@              an MP2 calculation

 Fock matrices are calculated directly without use of integrals on disk.

 Initial molecular orbitals are obtained according to
 ".MOSTART EHT   " input option

     Wave function specification
     ============================
@    Wave function type        --- MC-SCF ---
@    Number of closed shell electrons          54
@    Number of electrons in active shells      10
@    Total charge of the molecule               0

@    Spin multiplicity and 2 M_S                3         2
@    Total number of symmetries                 4 (point group: C2v)
@    Reference state symmetry                   1 (irrep name : A1 )

     Orbital specifications
     ======================
@    Abelian symmetry species          All |    1    2    3    4
@                                          |  A1   B1   B2   A2 
                                       --- |  ---  ---  ---  ---
@    Inactive orbitals                  27 |   15   10    2    0
@    Active orbitals                     7 |    1    1    2    3
@    Secondary orbitals                254 |   99   80   44   31
@    Total number of orbitals          288 |  115   91   48   34
@    Number of basis functions         288 |  115   91   48   34

      ** Automatic occupation of RHF orbitals **

      -- Initial occupation of symmetries is determined from extended Huckel guess.           
      -- Initial occupation of symmetries is :
@    Occupied SCF orbitals              32 |   16   11    3    2

     Optimization information
     ========================
@    Number of determinants                  56
@    Number of orbital rotations           2762
     ------------------------------------------
@    Total number of variables             2818

     Maximum number of macro iterations      25
     Maximum number of micro iterations     600
     Threshold for MCSCF gradient      1.00D-05
     Number of initial trial vectors          1
     Number of initial CI iterations          3
     Number of simultaneous trial vectors     1

@    This calculation converges to the lowest state for the specified symmetry and spin species.

     Maximum number of NEO/NR iterations  24

    INFORMATION: Switched to "new" integral transformation (from 1988 ;-) )
    because more than 255 basis functions.


 ***********************************************
 ***** DIIS acceleration of SCF iterations *****
 ***********************************************

 C1-DIIS algorithm; max error vectors =    8

 Automatic occupation of symmetries with  64 electrons.

 Iter     Total energy    Error norm  Delta(E)    SCF occupation
 -----------------------------------------------------------------------------
   1  Screening settings (-IFTHRS, JTDIIS, DIFDEN, times)   -8    1    T  2.63D+01  2.63D+01
@  1  -432.276869848       6.44D+00  -4.32D+02    16  11   3   2
      Virial theorem: -V/T =      1.998614
@    MULPOP   C       0.31; C   _1  0.27; C   _2  0.27; C   _1  0.22; C   _2  0.22; C       0.35; N       1.32; O   _1 -1.01; O   _2 -1.01; H   _1 -0.20; 
@             H   _2 -0.20; H   _1 -0.18; H   _2 -0.18; H      -0.19; 
   1  Level shift: doubly occupied orbital energies shifted by -2.00D-01
 -----------------------------------------------------------------------------
   2  Screening settings (-IFTHRS, JTDIIS, DIFDEN, times)   -8    2    T  2.63D+01  2.63D+01
@  2  -433.848681580       2.87D+00  -1.57D+00    16  11   3   2
      Virial theorem: -V/T =      2.001351
@    MULPOP   C       0.75; C   _1  0.39; C   _2  0.39; C   _1  0.36; C   _2  0.36; C       0.39; N       0.38; O   _1 -0.51; O   _2 -0.51; H   _1 -0.41; 
@             H   _2 -0.41; H   _1 -0.39; H   _2 -0.39; H      -0.40; 
   2  Level shift: doubly occupied orbital energies shifted by -1.00D-01
 -----------------------------------------------------------------------------
   3  Screening settings (-IFTHRS, JTDIIS, DIFDEN, times)   -8    3    T  2.62D+01  2.62D+01
@  3  -434.198952751       7.06D-01  -3.50D-01    16  11   3   2
      Virial theorem: -V/T =      2.000851
@    MULPOP   C       1.46; C   _1  0.30; C   _2  0.30; C   _1  0.44; C   _2  0.44; C       0.31; N       0.72; O   _1 -0.86; O   _2 -0.86; H   _1 -0.46; 
@             H   _2 -0.46; H   _1 -0.44; H   _2 -0.44; H      -0.44; 
   3  Level shift: doubly occupied orbital energies shifted by -2.50D-02
 -----------------------------------------------------------------------------
   4  Screening settings (-IFTHRS, JTDIIS, DIFDEN, times)   -8    4    T  2.61D+01  2.61D+01
@  4  -434.223860570       1.81D-01  -2.49D-02    16  11   3   2
      Virial theorem: -V/T =      2.002571
@    MULPOP   C       1.56; C   _1  0.26; C   _2  0.26; C   _1  0.52; C   _2  0.52; C       0.27; N       0.57; O   _1 -0.83; O   _2 -0.83; H   _1 -0.46; 
@             H   _2 -0.46; H   _1 -0.46; H   _2 -0.46; H      -0.46; 
   4  Level shift: doubly occupied orbital energies shifted by -1.25D-02
 -----------------------------------------------------------------------------
   5  Screening settings (-IFTHRS, JTDIIS, DIFDEN, times)  -10    5    F  2.65D+01  2.65D+01
@  5  -434.226430353       5.46D-02  -2.57D-03    16  11   3   2
      Virial theorem: -V/T =      2.001999
@    MULPOP   C       1.59; C   _1  0.23; C   _2  0.23; C   _1  0.52; C   _2  0.52; C       0.24; N       0.57; O   _1 -0.84; O   _2 -0.84; H   _1 -0.45; 
@             H   _2 -0.45; H   _1 -0.44; H   _2 -0.44; H      -0.45; 
 -----------------------------------------------------------------------------
   6  Screening settings (-IFTHRS, JTDIIS, DIFDEN, times)  -10    6    T  2.63D+01  2.63D+01
@  6  -434.226771667       1.54D-02  -3.41D-04    16  11   3   2
      Virial theorem: -V/T =      2.001924
@    MULPOP   C       1.61; C   _1  0.22; C   _2  0.22; C   _1  0.52; C   _2  0.52; C       0.24; N       0.55; O   _1 -0.83; O   _2 -0.83; H   _1 -0.45; 
@             H   _2 -0.45; H   _1 -0.44; H   _2 -0.44; H      -0.44; 
 -----------------------------------------------------------------------------
   7  Screening settings (-IFTHRS, JTDIIS, DIFDEN, times)  -13    7    F  2.66D+01  2.66D+01
@  7  -434.226806580       6.49D-03  -3.49D-05    16  11   3   2
      Virial theorem: -V/T =      2.001958
@    MULPOP   C       1.62; C   _1  0.22; C   _2  0.22; C   _1  0.52; C   _2  0.52; C       0.24; N       0.55; O   _1 -0.83; O   _2 -0.83; H   _1 -0.45; 
@             H   _2 -0.45; H   _1 -0.44; H   _2 -0.44; H      -0.44; 
 -----------------------------------------------------------------------------
   8  Screening settings (-IFTHRS, JTDIIS, DIFDEN, times)  -13    8    T  2.65D+01  2.65D+01
@  8  -434.226812132       2.19D-03  -5.55D-06    16  11   3   2
      Virial theorem: -V/T =      2.001946
@    MULPOP   C       1.62; C   _1  0.22; C   _2  0.22; C   _1  0.52; C   _2  0.52; C       0.24; N       0.54; O   _1 -0.83; O   _2 -0.83; H   _1 -0.45; 
@             H   _2 -0.45; H   _1 -0.44; H   _2 -0.44; H      -0.44; 
 -----------------------------------------------------------------------------
   9  Screening settings (-IFTHRS, JTDIIS, DIFDEN, times)  -13    9    T  2.64D+01  2.64D+01
@  9  -434.226812720       6.61D-04  -5.88D-07    16  11   3   2
      Virial theorem: -V/T =      2.001943
@    MULPOP   C       1.62; C   _1  0.22; C   _2  0.22; C   _1  0.52; C   _2  0.52; C       0.24; N       0.54; O   _1 -0.83; O   _2 -0.83; H   _1 -0.45; 
@             H   _2 -0.45; H   _1 -0.44; H   _2 -0.44; H      -0.44; 
 -----------------------------------------------------------------------------
  10  Screening settings (-IFTHRS, JTDIIS, DIFDEN, times)  -13   10    T  2.65D+01  2.65D+01
@ 10  -434.226812770       1.99D-04  -5.01D-08    16  11   3   2
      Virial theorem: -V/T =      2.001944
@    MULPOP   C       1.62; C   _1  0.22; C   _2  0.22; C   _1  0.52; C   _2  0.52; C       0.24; N       0.54; O   _1 -0.83; O   _2 -0.83; H   _1 -0.45; 
@             H   _2 -0.45; H   _1 -0.44; H   _2 -0.44; H      -0.44; 
 -----------------------------------------------------------------------------
  11  Screening settings (-IFTHRS, JTDIIS, DIFDEN, times)  -13   11    T  2.64D+01  2.64D+01
@ 11  -434.226812776       7.13D-05  -6.20D-09    16  11   3   2
      Virial theorem: -V/T =      2.001944
@    MULPOP   C       1.62; C   _1  0.22; C   _2  0.22; C   _1  0.52; C   _2  0.52; C       0.24; N       0.54; O   _1 -0.83; O   _2 -0.83; H   _1 -0.45; 
@             H   _2 -0.45; H   _1 -0.44; H   _2 -0.44; H      -0.44; 
 -----------------------------------------------------------------------------
  12  Screening settings (-IFTHRS, JTDIIS, DIFDEN, times)  -13   12    T  2.63D+01  2.63D+01
@ 12  -434.226812777       2.74D-05  -8.16D-10    16  11   3   2
      Virial theorem: -V/T =      2.001944
@    MULPOP   C       1.62; C   _1  0.22; C   _2  0.22; C   _1  0.52; C   _2  0.52; C       0.24; N       0.54; O   _1 -0.83; O   _2 -0.83; H   _1 -0.45; 
@             H   _2 -0.45; H   _1 -0.44; H   _2 -0.44; H      -0.44; 
 -----------------------------------------------------------------------------
  13  Screening settings (-IFTHRS, JTDIIS, DIFDEN, times)  -13   13    T  2.63D+01  2.63D+01
@ 13  -434.226812777       1.50D-05  -1.08D-10    16  11   3   2
      Virial theorem: -V/T =      2.001944
@    MULPOP   C       1.62; C   _1  0.22; C   _2  0.22; C   _1  0.52; C   _2  0.52; C       0.24; N       0.54; O   _1 -0.83; O   _2 -0.83; H   _1 -0.45; 
@             H   _2 -0.45; H   _1 -0.44; H   _2 -0.44; H      -0.44; 
 -----------------------------------------------------------------------------
  14  Screening settings (-IFTHRS, JTDIIS, DIFDEN, times)  -13   14    T  2.63D+01  2.63D+01
@ 14  -434.226812777       4.25D-06  -3.41D-11    16  11   3   2
      Virial theorem: -V/T =      2.001944
@    MULPOP   C       1.62; C   _1  0.22; C   _2  0.22; C   _1  0.52; C   _2  0.52; C       0.24; N       0.54; O   _1 -0.83; O   _2 -0.83; H   _1 -0.45; 
@             H   _2 -0.45; H   _1 -0.44; H   _2 -0.44; H      -0.44; 
 -----------------------------------------------------------------------------
  15  Screening settings (-IFTHRS, JTDIIS, DIFDEN, times)  -13   15    T  2.62D+01  2.62D+01
@ 15  -434.226812777       2.06D-06  -8.98D-12    16  11   3   2
      Virial theorem: -V/T =      2.001944
@    MULPOP   C       1.62; C   _1  0.22; C   _2  0.22; C   _1  0.52; C   _2  0.52; C       0.24; N       0.54; O   _1 -0.83; O   _2 -0.83; H   _1 -0.45; 
@             H   _2 -0.45; H   _1 -0.44; H   _2 -0.44; H      -0.44; 
 -----------------------------------------------------------------------------
  16  Screening settings (-IFTHRS, JTDIIS, DIFDEN, times)  -13   16    T  2.62D+01  2.62D+01
@ 16  -434.226812777       1.06D-06  -9.78D-12    16  11   3   2
      Virial theorem: -V/T =      2.001944
@    MULPOP   C       1.62; C   _1  0.22; C   _2  0.22; C   _1  0.52; C   _2  0.52; C       0.24; N       0.54; O   _1 -0.83; O   _2 -0.83; H   _1 -0.45; 
@             H   _2 -0.45; H   _1 -0.44; H   _2 -0.44; H      -0.44; 
 -----------------------------------------------------------------------------
  17  Screening settings (-IFTHRS, JTDIIS, DIFDEN, times)  -13   17    T  2.62D+01  2.62D+01
@ 17  -434.226812777       5.15D-07   1.76D-11    16  11   3   2

@ *** DIIS converged in  17 iterations !
@     Converged SCF energy, gradient:   -434.226812777181    5.15D-07
    - total time used in SIRFCK :              0.00 seconds

 --- Writing SIRIFC interface file

 CPU and wall time for SCF :     448.078     448.120


 ----- Output from SIRIUS MP2 module -----

 Reference: H.J.Aa.Jensen, P.Jorgensen, H.Agren, and J.Olsen,
            J. Chem. Phys. 88, 3834 (1988); 89, 5354 (1988)

 Checking that the closed shell orbitals are canonical Hartree-Fock orbitals

    Number of electrons  :   64
    Closed shell orbitals:   16   11    3    2

 Generating Fock matrix

 Hartree-Fock electronic energy:        -848.034430503259
 Hartree-Fock total      energy:        -434.226812777190

 Hartree-Fock orbital energies, symmetry 1 ( A1 ),   16 occupied SCF orbitals

       -20.62479718   -15.86784527   -11.31131081   -11.27807491   -11.27675117
       -11.26966039    -1.61333432    -1.19580188    -1.08691043    -0.95938862
        -0.83598598    -0.78517786    -0.70485002    -0.64860474    -0.55124691
        -0.48774398     0.02813733     0.04465273     0.06239300     0.10517155
         0.13123450     0.13569195     0.15287992     0.15638103     0.17319782
         0.17866444     0.21796681     0.25914445     0.28483697     0.30396174
         0.30816912     0.34077113     0.35367058     0.35751732     0.36918065
         0.39400831     0.41207039     0.44124295     0.46279000     0.48782034
         0.49395950     0.55920020     0.57203900     0.59020429     0.63182375
         0.65457331     0.66238228     0.68158332     0.71761599     0.73228317
         0.74547416     0.83814196     0.87704671     0.92517027     0.96332706
         0.96775923     1.01142574     1.04994066     1.08377683     1.14246732
         1.28624546     1.36806871     1.37888634     1.43872882     1.48749959
         1.52416765     1.55569054     1.57346755     1.60728392     1.62980764
         1.67652942     1.72895835     1.74701006     1.76343163     1.86201881
         1.94410348     1.96237031     2.00384085     2.02179145     2.11463082
         2.12866988     2.23806552     2.33137552     2.35367483     2.42495097
         2.45560985     2.56886314     2.71329653     2.77992573     2.85644786
         2.88385497     2.99367827     3.04326266     3.16866795     3.28135962
         3.42920549     3.78012610     3.89571360     4.09709783     4.30073852
        19.80105894    20.34474795    20.45988565    20.62635111    23.35718414
        23.36264064    23.43294207    23.81913654    23.91749815    24.12830435
        27.11056061    31.22322100    35.80736755    39.67896066    39.97787398

 Hartree-Fock orbital energies, symmetry 2 ( B1 ),   11 occupied SCF orbitals

       -20.62484074   -11.27811393   -11.26977181    -1.42654962    -1.05094373
        -0.86319130    -0.74070755    -0.65626283    -0.62290534    -0.52801897
        -0.51159085     0.03707518     0.05994783     0.13105095     0.13472798
         0.15468296     0.17333524     0.18459960     0.21483037     0.26198835
         0.29038020     0.31534336     0.33356136     0.36541722     0.37272492
         0.39605318     0.42405109     0.43921130     0.48736563     0.57129002
         0.58528051     0.59842826     0.65273901     0.67698689     0.68514836
         0.71147988     0.75387437     0.76386048     0.83226352     0.84378933
         0.86987158     0.94300063     1.01436720     1.14158468     1.20904434
         1.25489422     1.30117834     1.41515955     1.43685283     1.48993381
         1.55782402     1.59051029     1.59901004     1.64099136     1.72110887
         1.76532728     1.77587106     1.79659806     1.89622898     1.93676931
         1.99648464     2.09402672     2.22757273     2.24973166     2.33265903
         2.35172956     2.39390730     2.54370419     2.57412628     2.77612317
         2.90137046     2.92756844     3.07569496     3.26766065     3.32676053
         3.41474902     3.76023797     3.85489836     4.23774909    20.31549009
        20.49495423    22.92362285    23.35095979    23.40578640    23.94379530
        24.12683991    24.31444825    31.45845072    35.52721439    39.63668237
        39.94914176

 Hartree-Fock orbital energies, symmetry 3 ( B2 ),    3 occupied SCF orbitals

        -0.72534542    -0.53257895    -0.37267382     0.03715850     0.10908196
         0.12611510     0.14109648     0.18541854     0.19428302     0.24096183
         0.32494608     0.34577473     0.36953309     0.44666152     0.53539699
         0.59092711     0.64691956     0.71451046     0.79032446     0.83476028
         0.87685274     0.92538324     0.93082762     0.98525852     1.15071950
         1.28897703     1.32493900     1.47272333     1.47351565     1.62202191
         1.67522708     1.71203377     1.85015140     1.89485784     1.96271604
         2.08649647     2.18405027     2.29654488     2.53394323     2.68054797
         3.68054174     3.75339536    22.54976661    22.69615577    22.83363804
        23.03180806    30.54970900    39.41199670

 Hartree-Fock orbital energies, symmetry 4 ( A2 ),    2 occupied SCF orbitals

        -0.46943152    -0.36517915     0.08959991     0.13315860     0.18741656
         0.29611143     0.41585891     0.49258759     0.55336460     0.66806620
         0.73939885     0.89846293     0.90699138     0.94957321     1.02835478
         1.10121677     1.21457609     1.23172894     1.32580352     1.49817984
         1.67802488     1.69317081     1.86619663     2.03442680     2.12317127
         2.22146261     2.36047128     2.45987660     2.61158652     3.66355224
         4.01828983    22.69741856    22.86470141    39.50770295

    E(LUMO) :     0.02813733   (in symmetry 1)
  - E(HOMO) :    -0.36517915   (in symmetry 4)
  --------------------------
    gap     :     0.39331648

---> (Re)generating AOTWOINT


     ************************************************************************
     ************************** Output from HERINT **************************
     ************************************************************************


 Threshold for neglecting two-electron integrals:  1.00D-12
 HERMIT - Number of two-electron integrals written:   204193794 ( 23.6% )
 HERMIT - Megabytes written:                           3117.048

  Time used in TWOINT     is      37.12 seconds

 2-el. integral transformation level 5: Total CPU and WALL times (sec)     390.594     392.170

 MP2 move   0.996050 electrons to unoccupied HF orbitals


@   Hartree-Fock total energy   :          -434.2268127772
@   + MP2 contribution          :            -1.7281240540
@   = MP2 second order energy   :          -435.9549368312

 Natural orbital occupation numbers, symmetry 1 (irrep A1 )
 Sum =    32.00897012; RHF =    32.00000000; Difference =     0.00897012

         1.99928979     1.99907543     1.99876141     1.99875650     1.99875181
         1.99874782     1.98681289     1.98408816     1.97938143     1.97231150
         1.96890824     1.96826715     1.96492453     1.96204963     1.95511346
         1.94563514     0.04541658     0.03581195     0.02561804     0.02384870
         0.01918319     0.01846986     0.01740571     0.01652377     0.01383114
         0.01265997     0.01144253     0.00983981     0.00855137     0.00792057
         0.00720525     0.00667737     0.00555708     0.00454031     0.00306631
         0.00294100     0.00266712     0.00258880     0.00220367     0.00202523
         0.00184608     0.00167485     0.00162971     0.00131898     0.00121795
         0.00116262     0.00106047     0.00096492     0.00072084     0.00065479
         0.00061407     0.00053031     0.00050165     0.00047260     0.00043813
         0.00041838     0.00039598     0.00038817     0.00037588     0.00034834
         0.00033852     0.00032189     0.00030767     0.00028529     0.00026599
         0.00025998     0.00022496     0.00020804     0.00020345     0.00019605
         0.00018651     0.00018599     0.00017629     0.00016995     0.00016712
         0.00016090     0.00015594     0.00014852     0.00014061     0.00013357
         0.00012613     0.00012240     0.00012124     0.00011075     0.00010496
         0.00009338     0.00007842     0.00007151     0.00005732     0.00005306
         0.00005005     0.00003668     0.00003417     0.00002894     0.00001927
         0.00001827     0.00001456     0.00001344     0.00001160     0.00000943
         0.00000891     0.00000852     0.00000700     0.00000303     0.00000276
         0.00000195     0.00000096     0.00000057     0.00000037     0.00000018
         0.00000017     0.00000002    -0.00000009    -0.00000054    -0.00008142

 Natural orbital occupation numbers, symmetry 2 (irrep B1 )
 Sum =    21.95235525; RHF =    22.00000000; Difference =    -0.04764475

         1.99928969     1.99875713     1.99875071     1.98436284     1.98000522
         1.97272029     1.96295272     1.96066291     1.95475233     1.95418134
         1.94539918     0.03678901     0.02544510     0.02383215     0.01885843
         0.01662421     0.01598263     0.01528496     0.01131054     0.01054827
         0.00914351     0.00774346     0.00587928     0.00540879     0.00512449
         0.00421993     0.00313902     0.00268230     0.00237549     0.00213193
         0.00169798     0.00162694     0.00151762     0.00132360     0.00118595
         0.00102017     0.00096900     0.00070214     0.00064379     0.00057292
         0.00049867     0.00044162     0.00042487     0.00037484     0.00035413
         0.00034245     0.00031712     0.00029524     0.00027127     0.00025703
         0.00023853     0.00021152     0.00019859     0.00018729     0.00018272
         0.00017856     0.00017110     0.00016950     0.00016030     0.00015348
         0.00014499     0.00013379     0.00012837     0.00012672     0.00011930
         0.00011279     0.00009449     0.00008831     0.00006683     0.00005876
         0.00004665     0.00003834     0.00003122     0.00002956     0.00002458
         0.00001543     0.00001400     0.00001154     0.00001048     0.00000897
         0.00000475     0.00000353     0.00000188     0.00000120     0.00000056
         0.00000026     0.00000014    -0.00000006    -0.00000017    -0.00000067
        -0.00000808

 Natural orbital occupation numbers, symmetry 3 (irrep B2 )
 Sum =     6.07716805; RHF =     6.00000000; Difference =     0.07716805

         1.95085827     1.94436676     1.90883735     0.10093301     0.06758193
         0.02966434     0.01056851     0.01036177     0.00876142     0.00784262
         0.00612768     0.00523644     0.00445324     0.00383987     0.00342985
         0.00309602     0.00155076     0.00145599     0.00100271     0.00090010
         0.00087221     0.00066610     0.00059142     0.00049117     0.00047473
         0.00041962     0.00033483     0.00029209     0.00024614     0.00022762
         0.00019586     0.00019576     0.00018990     0.00017465     0.00015531
         0.00012952     0.00012064     0.00011290     0.00010130     0.00008393
         0.00008136     0.00006231     0.00003607     0.00001984     0.00001059
         0.00000701     0.00000535     0.00000119

 Natural orbital occupation numbers, symmetry 4 (irrep A2 )
 Sum =     3.96150658; RHF =     4.00000000; Difference =    -0.03849342

         1.91632702     1.90855320     0.06682219     0.01449432     0.01045281
         0.00928172     0.00795521     0.00572562     0.00524508     0.00408278
         0.00356764     0.00152175     0.00116718     0.00093874     0.00078235
         0.00073105     0.00067837     0.00056718     0.00040986     0.00037227
         0.00033962     0.00030237     0.00021565     0.00019708     0.00016394
         0.00013447     0.00011648     0.00010233     0.00009356     0.00006944
         0.00005062     0.00002085     0.00001801     0.00000583

 Time used for MP2 natural orbitals :     420.531 CPU seconds,     422.106 wall seconds.

 CPU and wall time for MP2 :     420.531     422.107


        SIRIUS MCSCF optimization (SIROPT)
 ================================================


 Fock matrix screening setting for SIRCNO: IFTHRS =    9


 ----- Output from SIRIUS CI module (CICTL) -----




 2-el. integral transformation level 0: Total CPU and WALL times (sec)      95.219      95.281


 --- SIRCI.CIST1: plus combination of all degenerate
                 configurations is used as start vectors.


 (CIST1) 8 lowest diagonal elements:

 Element no. Config.no.    Active energy      Total energy

         1 :          1    -17.1289452633   -433.9937080083
         2 :         22    -17.0260166115   -433.8907793565
         3 :         28    -16.8612138855   -433.7259766305
         4 :          6    -16.8444208044   -433.7091835493
         5 :          5    -16.8387054485   -433.7034681934
         6 :          3    -16.8180101480   -433.6827728930
         7 :          2    -16.7621024555   -433.6268652005
         8 :         24    -16.7510419190   -433.6158046639


 Convergence threshold for CI optimization :     0.00000500



 *** Reached maximum number of CI iterations:    3
              1 CI roots are not converged.


@ Final CI energies and residuals in symmetry 1 (irrep A1 )
@    1     -434.029667958646087       2.93D-03

   --- OUTPUT FROM SIRCNO     Keyword = FD+NO 


 Occupations of CAS natural orbitals:

 Symmetry  1 ( irrep A1  in C2v )

   1.999828440

 Symmetry  2 ( irrep B1  in C2v )

   1.999843183

 Symmetry  3 ( irrep B2  in C2v )

   1.994801901   0.085818325

 Symmetry  4 ( irrep A2  in C2v )

   1.919791218   1.001823950   0.998092984


 --- MACRO ITERATION  1 ---
 --------------------------

 2-el. integral transformation level 3: Total CPU and WALL times (sec)      96.797      96.863

 Fock matrix screening setting for this macro iteration: 10^( -9)

 Total MCSCF energy       :          -434.029667959998278  (MACRO    1)

 - Nuclear repulsion      :           413.807617726068599
 - Inactive energy        :          -830.672380471223050
 - Active energy          :           -17.164905214843849

 Norm of total gradient   :             0.672262006702
 -    of CI gradient      :             0.005860299759
 -    of orbital gradient :             0.672236463264
      Virial theorem: -V/T =      1.998800
@    MULPOP   C       1.26; C   _1  0.37; C   _2  0.37; C   _1  0.51; C   _2  0.51; C       0.28; N       0.40; O   _1 -0.64; O   _2 -0.64; H   _1 -0.49; 
@             H   _2 -0.49; H   _1 -0.47; H   _2 -0.47; H      -0.48; 

 Residual norm when dim(red L) =   5
 NEO root     CSF        orbital          total
    1     0.08865722     0.03735100     0.09620395 converged

 (NEONEX) NEO vector is converged.

   --- OUTPUT FROM SIRCNO     Keyword = FD+NO 


 Occupations of CAS natural orbitals:

 Symmetry  1 ( irrep A1  in C2v )

   1.999828440

 Symmetry  2 ( irrep B1  in C2v )

   1.999843183

 Symmetry  3 ( irrep B2  in C2v )

   1.994801901   0.085818325

 Symmetry  4 ( irrep A2  in C2v )

   1.919791218   1.001823950   0.998092984


 --- MACRO ITERATION  2 ---
 --------------------------

 2-el. integral transformation level 3: Total CPU and WALL times (sec)      99.312      99.326

 Fock matrix screening setting for this macro iteration: 10^( -9)

 Total MCSCF energy       :          -434.094695042394790  (MACRO    2)

 - Nuclear repulsion      :           413.807617726068599
 - Inactive energy        :          -830.203844433067388
 - Active energy          :           -17.698468335395987

 Norm of total gradient   :             0.077518124500
 -    of CI gradient      :             0.054959159893
 -    of orbital gradient :             0.054667635488
      Virial theorem: -V/T =      2.000760
@    MULPOP   C       1.85; C   _1  0.16; C   _2  0.16; C   _1  0.42; C   _2  0.42; C       0.35; N       0.45; O   _1 -0.78; O   _2 -0.78; H   _1 -0.46; 
@             H   _2 -0.46; H   _1 -0.45; H   _2 -0.45; H      -0.44; 

 Residual norm when dim(red L) =  11
 NEO root     CSF        orbital          total
    1     0.00925962     0.00435286     0.01023172 converged

 (NEONEX) NEO vector is converged.

   --- OUTPUT FROM SIRCNO     Keyword = FD+NO 


 Occupations of CAS natural orbitals:

 Symmetry  1 ( irrep A1  in C2v )

   1.999819758

 Symmetry  2 ( irrep B1  in C2v )

   1.999491154

 Symmetry  3 ( irrep B2  in C2v )

   1.986054992   0.125449983

 Symmetry  4 ( irrep A2  in C2v )

   1.888138047   1.006261752   0.994784314


 --- MACRO ITERATION  3 ---
 --------------------------

 2-el. integral transformation level 3: Total CPU and WALL times (sec)      97.047      97.047

 Fock matrix screening setting for this macro iteration: 10^( -9)

 Total MCSCF energy       :          -434.097317363889147  (MACRO    3)

 - Nuclear repulsion      :           413.807617726068599
 - Inactive energy        :          -829.726801511680833
 - Active energy          :           -18.178133578276924

 Norm of total gradient   :             0.041647420549
 -    of CI gradient      :             0.035050009533
 -    of orbital gradient :             0.022494543119
      Virial theorem: -V/T =      2.000656
@    MULPOP   C       1.83; C   _1  0.17; C   _2  0.17; C   _1  0.42; C   _2  0.42; C       0.35; N       0.44; O   _1 -0.77; O   _2 -0.77; H   _1 -0.46; 
@             H   _2 -0.46; H   _1 -0.45; H   _2 -0.45; H      -0.45; 

 (SIRNEO) iteration (  3,  8)
 Micro iteration termination criterion met, EVAL(ISTATE+1) = -8.22D-04

   --- OUTPUT FROM SIRCNO     Keyword = FD+NO 


 Occupations of CAS natural orbitals:

 Symmetry  1 ( irrep A1  in C2v )

   1.999878848

 Symmetry  2 ( irrep B1  in C2v )

   1.999358943

 Symmetry  3 ( irrep B2  in C2v )

   1.984297930   0.126592820

 Symmetry  4 ( irrep A2  in C2v )

   1.889977395   1.001482960   0.998411103


 --- MACRO ITERATION  4 ---
 --------------------------

 2-el. integral transformation level 3: Total CPU and WALL times (sec)      98.641      98.691

 Fock matrix screening setting for this macro iteration: 10^( -9)

 Total MCSCF energy       :          -434.100660003467567  (MACRO    4)

 - Nuclear repulsion      :           413.807617726068599
 - Inactive energy        :          -828.606186832116919
 - Active energy          :           -19.302090897419273

 Norm of total gradient   :             0.039221173297
 -    of CI gradient      :             0.026943308122
 -    of orbital gradient :             0.028501904888
      Virial theorem: -V/T =      2.000615
@    MULPOP   C       1.83; C   _1  0.17; C   _2  0.17; C   _1  0.42; C   _2  0.42; C       0.35; N       0.44; O   _1 -0.77; O   _2 -0.77; H   _1 -0.46; 
@             H   _2 -0.46; H   _1 -0.45; H   _2 -0.45; H      -0.45; 

 Residual norm when dim(red L) =  12
 NEO root     CSF        orbital          total
    1     0.00277600     0.00178036     0.00329786 converged

 (NEONEX) NEO vector is converged.

   --- OUTPUT FROM SIRCNO     Keyword = FD+NO 


 Occupations of CAS natural orbitals:

 Symmetry  1 ( irrep A1  in C2v )

   1.999766386

 Symmetry  2 ( irrep B1  in C2v )

   1.998310124

 Symmetry  3 ( irrep B2  in C2v )

   1.982325589   0.109217659

 Symmetry  4 ( irrep A2  in C2v )

   1.910558933   1.000041989   0.999779320


 --- MACRO ITERATION  5 ---
 --------------------------

 2-el. integral transformation level 3: Total CPU and WALL times (sec)      97.266      97.278

 Fock matrix screening setting for this macro iteration: 10^( -9)

 Total MCSCF energy       :          -434.101789542294455  (MACRO    5)

 - Nuclear repulsion      :           413.807617726068599
 - Inactive energy        :          -828.077755163147685
 - Active energy          :           -19.831652105215380

 Norm of total gradient   :             0.038003310595
 -    of CI gradient      :             0.035421881436
 -    of orbital gradient :             0.013767422841
      Virial theorem: -V/T =      2.000631
@    MULPOP   C       1.82; C   _1  0.18; C   _2  0.18; C   _1  0.42; C   _2  0.42; C       0.35; N       0.46; O   _1 -0.78; O   _2 -0.78; H   _1 -0.46; 
@             H   _2 -0.46; H   _1 -0.45; H   _2 -0.45; H      -0.45; 

 (SIRNEO) iteration (  5,  7)
 Micro iteration termination criterion met, EVAL(ISTATE+1) = -1.45D-04

   --- OUTPUT FROM SIRCNO     Keyword = FD+NO 


 Occupations of CAS natural orbitals:

 Symmetry  1 ( irrep A1  in C2v )

   1.999729737

 Symmetry  2 ( irrep B1  in C2v )

   1.999400861

 Symmetry  3 ( irrep B2  in C2v )

   1.985422661   0.111361715

 Symmetry  4 ( irrep A2  in C2v )

   1.904275598   1.000020074   0.999789355


 --- MACRO ITERATION  6 ---
 --------------------------

 2-el. integral transformation level 3: Total CPU and WALL times (sec)      97.047      97.087

 Fock matrix screening setting for this macro iteration: 10^( -9)

 Total MCSCF energy       :          -434.102460317142743  (MACRO    6)

 - Nuclear repulsion      :           413.807617726068599
 - Inactive energy        :          -826.991878538277206
 - Active energy          :           -20.918199504934144

 Norm of total gradient   :             0.017738610964
 -    of CI gradient      :             0.008181815582
 -    of orbital gradient :             0.015739002913
      Virial theorem: -V/T =      2.000605
@    MULPOP   C       1.82; C   _1  0.17; C   _2  0.17; C   _1  0.42; C   _2  0.42; C       0.35; N       0.47; O   _1 -0.78; O   _2 -0.78; H   _1 -0.46; 
@             H   _2 -0.46; H   _1 -0.45; H   _2 -0.45; H      -0.45; 

 Residual norm when dim(red L) =  10
 NEO root     CSF        orbital          total
    1     0.00234582     0.00169885     0.00289637 converged

 (NEONEX) NEO vector is converged.

   --- OUTPUT FROM SIRCNO     Keyword = FD+NO 


 Occupations of CAS natural orbitals:

 Symmetry  1 ( irrep A1  in C2v )

   1.999204442

 Symmetry  2 ( irrep B1  in C2v )

   1.999249087

 Symmetry  3 ( irrep B2  in C2v )

   1.985776976   0.112048334

 Symmetry  4 ( irrep A2  in C2v )

   1.903912354   1.000034696   0.999774111


 --- MACRO ITERATION  7 ---
 --------------------------

 2-el. integral transformation level 3: Total CPU and WALL times (sec)      97.125      97.147

 Fock matrix screening setting for this macro iteration: 10^( -9)

 Total MCSCF energy       :          -434.102933422301874  (MACRO    7)

 - Nuclear repulsion      :           413.807617726068599
 - Inactive energy        :          -827.003236109467480
 - Active energy          :           -20.907315038902976

 Norm of total gradient   :             0.006956540204
 -    of CI gradient      :             0.006311152745
 -    of orbital gradient :             0.002926226690
      Virial theorem: -V/T =      2.000635
@    MULPOP   C       1.82; C   _1  0.18; C   _2  0.18; C   _1  0.42; C   _2  0.42; C       0.35; N       0.46; O   _1 -0.77; O   _2 -0.77; H   _1 -0.46; 
@             H   _2 -0.46; H   _1 -0.45; H   _2 -0.45; H      -0.45; 

 Residual norm when dim(red L) =  11
 NEO root     CSF        orbital          total
    1     0.00085112     0.00064246     0.00106637 converged

 (NEONEX) NEO vector is converged.

   --- OUTPUT FROM SIRCNO     Keyword = FD+NO 


 Occupations of CAS natural orbitals:

 Symmetry  1 ( irrep A1  in C2v )

   1.997903296

 Symmetry  2 ( irrep B1  in C2v )

   1.999549207

 Symmetry  3 ( irrep B2  in C2v )

   1.985925374   0.112242384

 Symmetry  4 ( irrep A2  in C2v )

   1.904563085   1.000044735   0.999771919


 --- MACRO ITERATION  8 ---
 --------------------------

 2-el. integral transformation level 3: Total CPU and WALL times (sec)      96.953      96.976

 Fock matrix screening setting for this macro iteration: 10^( -9)

 Total MCSCF energy       :          -434.103071146084460  (MACRO    8)

 - Nuclear repulsion      :           413.807617726068599
 - Inactive energy        :          -827.066363501656042
 - Active energy          :           -20.844325370497003

 Norm of total gradient   :             0.019770475860
 -    of CI gradient      :             0.019536492649
 -    of orbital gradient :             0.003032683747
      Virial theorem: -V/T =      2.000626
@    MULPOP   C       1.82; C   _1  0.18; C   _2  0.18; C   _1  0.42; C   _2  0.42; C       0.35; N       0.46; O   _1 -0.78; O   _2 -0.78; H   _1 -0.46; 
@             H   _2 -0.46; H   _1 -0.45; H   _2 -0.45; H      -0.45; 

 Residual norm when dim(red L) =   8
 NEO root     CSF        orbital          total
    1     0.00087649     0.00041891     0.00097146 converged

 (NEONEX) NEO vector is converged.

   --- OUTPUT FROM SIRCNO     Keyword = FD+NO 


 Occupations of CAS natural orbitals:

 Symmetry  1 ( irrep A1  in C2v )

   1.998544135

 Symmetry  2 ( irrep B1  in C2v )

   1.999522787

 Symmetry  3 ( irrep B2  in C2v )

   1.985965190   0.111319072

 Symmetry  4 ( irrep A2  in C2v )

   1.904835814   1.000040868   0.999772134


 --- MACRO ITERATION  9 ---
 --------------------------

 2-el. integral transformation level 3: Total CPU and WALL times (sec)      97.641      97.644

 Fock matrix screening setting for this macro iteration: 10^( -9)

 Total MCSCF energy       :          -434.103184104906916  (MACRO    9)

 - Nuclear repulsion      :           413.807617726068599
 - Inactive energy        :          -827.032901423679050
 - Active energy          :           -20.877900407296487

 Norm of total gradient   :             0.002317935993
 -    of CI gradient      :             0.002255262295
 -    of orbital gradient :             0.000535368331
      Virial theorem: -V/T =      2.000631
@    MULPOP   C       1.82; C   _1  0.18; C   _2  0.18; C   _1  0.42; C   _2  0.42; C       0.35; N       0.46; O   _1 -0.77; O   _2 -0.77; H   _1 -0.46; 
@             H   _2 -0.46; H   _1 -0.45; H   _2 -0.45; H      -0.45; 

 Residual norm when dim(red L) =  16
 NEO root     CSF        orbital          total
    1     0.00003404     0.00002133     0.00004017 converged

 (NEONEX) NEO vector is converged.

   --- OUTPUT FROM SIRCNO     Keyword = FD+NO 


 Occupations of CAS natural orbitals:

 Symmetry  1 ( irrep A1  in C2v )

   1.998620398

 Symmetry  2 ( irrep B1  in C2v )

   1.999524183

 Symmetry  3 ( irrep B2  in C2v )

   1.986016339   0.111668358

 Symmetry  4 ( irrep A2  in C2v )

   1.904359312   1.000039242   0.999772167


 --- MACRO ITERATION 10 ---
 --------------------------

 2-el. integral transformation level 3: Total CPU and WALL times (sec)      96.703      96.716

 Fock matrix screening setting for this macro iteration: 10^( -9)

 Total MCSCF energy       :          -434.103187261986250  (MACRO   10)

 - Nuclear repulsion      :           413.807617726068599
 - Inactive energy        :          -827.011835205079933
 - Active energy          :           -20.898969782974913

 Norm of total gradient   :             0.000121828967
 -    of CI gradient      :             0.000119051235
 -    of orbital gradient :             0.000025866981
      Virial theorem: -V/T =      2.000633
@    MULPOP   C       1.82; C   _1  0.18; C   _2  0.18; C   _1  0.42; C   _2  0.42; C       0.35; N       0.46; O   _1 -0.77; O   _2 -0.77; H   _1 -0.46; 
@             H   _2 -0.46; H   _1 -0.45; H   _2 -0.45; H      -0.45; 

 Residual norm when dim(red L) =  12
 NEO root     CSF        orbital          total
    1     0.00000369     0.00000562     0.00000672 converged

 (NEONEX) NEO vector is converged.

   --- OUTPUT FROM SIRCNO     Keyword = FD+NO 


 Occupations of CAS natural orbitals:

 Symmetry  1 ( irrep A1  in C2v )

   1.998625308

 Symmetry  2 ( irrep B1  in C2v )

   1.999523321

 Symmetry  3 ( irrep B2  in C2v )

   1.986014966   0.111664774

 Symmetry  4 ( irrep A2  in C2v )

   1.904360161   1.000039147   0.999772323


 --- MACRO ITERATION 11 ---
 --------------------------

 2-el. integral transformation level 3: Total CPU and WALL times (sec)      96.906      96.929

 Fock matrix screening setting for this macro iteration: 10^( -9)

 Total MCSCF energy       :          -434.103187268526199  (MACRO   11)

 - Nuclear repulsion      :           413.807617726068599
 - Inactive energy        :          -827.011467480435385
 - Active energy          :           -20.899337514159395

 Norm of total gradient   :             0.000006737779
 -    of CI gradient      :             0.000003715388
 -    of orbital gradient :             0.000005620815
      Virial theorem: -V/T =      2.000633
@    MULPOP   C       1.82; C   _1  0.18; C   _2  0.18; C   _1  0.42; C   _2  0.42; C       0.35; N       0.46; O   _1 -0.77; O   _2 -0.77; H   _1 -0.46; 
@             H   _2 -0.46; H   _1 -0.45; H   _2 -0.45; H      -0.45; 

 (SIRSTP) Energy difference;
 actual, predicted and ratio:  -0.000000006539949  -0.000000006526378    1.002079
 Close to convergence, ratio set to one.

 *** Optimization control: MCSCF converged ***
     Number of macro iterations used           11
[...]

       No.  Residual tot.,    conf., and orb.    Bnorm      Frequency 
      ----------------------------------------------------------------
         1    2.32949D+01  1.76D+01  1.53D+01  1.01D+03    0.00000D+00

 ** RSPCTL MICROITERATION NUMBER    7

 *** INFO, negative eigenvalues in reduced matrix. Symmetry  4,  triplet       F Dimension of reduced matrix =    16

 GP * SOLUTION vector at frequency     0.00000 a.u.
 after    8 linear transformations is      1.38844441D+04
 INERTIA (POS,ZER,NEG) of reduced matrix is   15    0    1
 Determinant of reduced matrix is -5.13 * 10 **-13.0

       No.  Residual tot.,    conf., and orb.    Bnorm      Frequency 
      ----------------------------------------------------------------
         1    9.23169D+00  1.10D+00  9.17D+00  3.83D+02    0.00000D+00

 ** RSPCTL MICROITERATION NUMBER    8

 *** INFO, negative eigenvalues in reduced matrix. Symmetry  4,  triplet       F Dimension of reduced matrix =    18

 GP * SOLUTION vector at frequency     0.00000 a.u.
 after    9 linear transformations is      1.39091495D+04
 INERTIA (POS,ZER,NEG) of reduced matrix is   17    0    1
 Determinant of reduced matrix is -3.84 * 10 **-15.0

       No.  Residual tot.,    conf., and orb.    Bnorm      Frequency 
      ----------------------------------------------------------------
         1    2.03712D+00  1.30D+00  1.57D+00  3.13D+02    0.00000D+00

 ** RSPCTL MICROITERATION NUMBER    9

 *** INFO, negative eigenvalues in reduced matrix. Symmetry  4,  triplet       F Dimension of reduced matrix =    20

 GP * SOLUTION vector at frequency     0.00000 a.u.
 after   10 linear transformations is      1.39108622D+04
 INERTIA (POS,ZER,NEG) of reduced matrix is   19    0    1
 Determinant of reduced matrix is -1.02 * 10 **-17.0

       No.  Residual tot.,    conf., and orb.    Bnorm      Frequency 
      ----------------------------------------------------------------
         1    1.44024D+00  1.28D+00  6.65D-01  3.13D+02    0.00000D+00

 ** RSPCTL MICROITERATION NUMBER   10

 *** INFO, negative eigenvalues in reduced matrix. Symmetry  4,  triplet       F Dimension of reduced matrix =    22

 GP * SOLUTION vector at frequency     0.00000 a.u.
 after   11 linear transformations is      1.39122264D+04
 INERTIA (POS,ZER,NEG) of reduced matrix is   21    0    1
 Determinant of reduced matrix is -1.12 * 10 **-17.0

       No.  Residual tot.,    conf., and orb.    Bnorm      Frequency 
      ----------------------------------------------------------------
         1    8.39525D-01  3.28D-01  7.73D-01  3.12D+02    0.00000D+00

 ** RSPCTL MICROITERATION NUMBER   11

 *** INFO, negative eigenvalues in reduced matrix. Symmetry  4,  triplet       F Dimension of reduced matrix =    24

 GP * SOLUTION vector at frequency     0.00000 a.u.
 after   12 linear transformations is      1.39125087D+04
 INERTIA (POS,ZER,NEG) of reduced matrix is   23    0    1
 Determinant of reduced matrix is -1.75 * 10 **-19.0

       No.  Residual tot.,    conf., and orb.    Bnorm      Frequency 
      ----------------------------------------------------------------
         1    4.95091D-01  3.31D-01  3.69D-01  3.14D+02    0.00000D+00

 ** RSPCTL MICROITERATION NUMBER   12

 *** INFO, negative eigenvalues in reduced matrix. Symmetry  4,  triplet       F Dimension of reduced matrix =    26

 GP * SOLUTION vector at frequency     0.00000 a.u.
 after   13 linear transformations is      1.39124046D+04
 INERTIA (POS,ZER,NEG) of reduced matrix is   24    0    2
 Determinant of reduced matrix is  2.87 * 10 **-21.0

       No.  Residual tot.,    conf., and orb.    Bnorm      Frequency 
      ----------------------------------------------------------------
         1    5.68131D-01  4.35D-01  3.65D-01  3.13D+02    0.00000D+00

 ** RSPCTL MICROITERATION NUMBER   13

 *** INFO, negative eigenvalues in reduced matrix. Symmetry  4,  triplet       F Dimension of reduced matrix =    28

 GP * SOLUTION vector at frequency     0.00000 a.u.
 after   14 linear transformations is      1.39125637D+04
 INERTIA (POS,ZER,NEG) of reduced matrix is   26    0    2
 Determinant of reduced matrix is  3.44 * 10 **-21.0

       No.  Residual tot.,    conf., and orb.    Bnorm      Frequency 
      ----------------------------------------------------------------
         1    3.05575D-01  4.74D-02  3.02D-01  3.11D+02    0.00000D+00

 *** THE REQUESTED    1 SOLUTION VECTORS CONVERGED

 Convergence of RSP solution vectors, threshold = 1.00D-03
 ---------------------------------------------------------------
 (dimension of paired reduced space:   28)
 RSP solution vector no.    1; norm of residual   9.81D-04

 *** RSPCTL MICROITERATIONS CONVERGED
    XDIPLEN     YDIPLEN      freq1     freq2                Norm
 ---------------------------------------------------------------
                          0.058400 -0.058400        311.39781639


 Perturbation symmetry.     KSYMOP:       1
 Perturbation spin symmetry.TRPLET:       F
 Orbital variables.         KZWOPT:    2762
 Configuration variables.   KZCONF:      56
 Total number of variables. KZVAR :    2818


 CRLRV2 -- linear response calc for sym:  1
 CRLRV2 -- operator label1: YDIPLEN 
 CRLRV2 -- operator label2: YDIPLEN 
 CRLRV2 -- freqr1 :   5.840000D-02
 CRLRV2 -- freqr2 :   5.840000D-02



 ---  SOLVING SETS OF LINEAR EQUATIONS FOR LINEAR RESPONSE PROPERTIES ---

 Operator symmetry = 1  ( A1 ); triplet =   F


 ** RSPCTL MICROITERATION NUMBER    1

       No.  Residual tot.,    conf., and orb.    Bnorm      Frequency 
      ----------------------------------------------------------------
         1    3.51760D+01  2.95D+00  3.51D+01  3.21D+02    1.16800D-01

 ** RSPCTL MICROITERATION NUMBER    2

       No.  Residual tot.,    conf., and orb.    Bnorm      Frequency 
      ----------------------------------------------------------------
         1    2.04730D+01  4.17D+00  2.00D+01  3.88D+02    1.16800D-01

 ** RSPCTL MICROITERATION NUMBER    3

       No.  Residual tot.,    conf., and orb.    Bnorm      Frequency 
      ----------------------------------------------------------------
         1    1.13812D+01  4.12D+00  1.06D+01  4.06D+02    1.16800D-01

 ** RSPCTL MICROITERATION NUMBER    4

       No.  Residual tot.,    conf., and orb.    Bnorm      Frequency 
      ----------------------------------------------------------------
         1    8.27896D+00  3.90D+00  7.30D+00  4.14D+02    1.16800D-01

 ** RSPCTL MICROITERATION NUMBER    5

       No.  Residual tot.,    conf., and orb.    Bnorm      Frequency 
      ----------------------------------------------------------------
         1    5.64084D+00  3.66D+00  4.30D+00  4.17D+02    1.16800D-01

 ** RSPCTL MICROITERATION NUMBER    6

       No.  Residual tot.,    conf., and orb.    Bnorm      Frequency 
      ----------------------------------------------------------------
         1    3.79633D+00  3.59D+00  1.22D+00  4.18D+02    1.16800D-01

 ** RSPCTL MICROITERATION NUMBER    7

       No.  Residual tot.,    conf., and orb.    Bnorm      Frequency 
      ----------------------------------------------------------------
         1    3.76513D+00  1.95D+00  3.22D+00  4.18D+02    1.16800D-01

 ** RSPCTL MICROITERATION NUMBER    8

       No.  Residual tot.,    conf., and orb.    Bnorm      Frequency 
      ----------------------------------------------------------------
         1    2.38499D+00  2.14D+00  1.06D+00  4.19D+02    1.16800D-01

 ** RSPCTL MICROITERATION NUMBER    9

       No.  Residual tot.,    conf., and orb.    Bnorm      Frequency 
      ----------------------------------------------------------------
         1    1.37215D+00  5.32D-01  1.26D+00  4.19D+02    1.16800D-01

 ** RSPCTL MICROITERATION NUMBER   10

       No.  Residual tot.,    conf., and orb.    Bnorm      Frequency 
      ----------------------------------------------------------------
         1    7.33043D-01  5.82D-01  4.45D-01  4.19D+02    1.16800D-01

 ** RSPCTL MICROITERATION NUMBER   11

       No.  Residual tot.,    conf., and orb.    Bnorm      Frequency 
      ----------------------------------------------------------------
         1    5.73168D-01  7.00D-02  5.69D-01  4.19D+02    1.16800D-01

 ** RSPCTL MICROITERATION NUMBER   12

       No.  Residual tot.,    conf., and orb.    Bnorm      Frequency 
      ----------------------------------------------------------------
         1    3.51462D-01  8.22D-02  3.42D-01  4.19D+02    1.16800D-01

 *** THE REQUESTED    1 SOLUTION VECTORS CONVERGED

 Convergence of RSP solution vectors, threshold = 1.00D-03
 ---------------------------------------------------------------
 (dimension of paired reduced space:   26)
 RSP solution vector no.    1; norm of residual   8.39D-04

 *** RSPCTL MICROITERATIONS CONVERGED
    YDIPLEN     YDIPLEN      freq1     freq2                Norm
 ---------------------------------------------------------------
                          0.058400  0.058400        418.90047715
  Time used in CRVEC2     is       2 hours 21 minutes 34 seconds


 ----- CALCULATING CONTRIBUTIONS TO SECOND HYPERPOLARIZABILITY -----


   Contribution                Term         Accumulated
 ------------------------------------------------------
 Na T[4] Nb Nc Nd    -4918.55758564      -4918.55758564
 Na T[3] Nx Nyz       8130.16686629       3211.60928065
 Na X[3] Ny Nz       11685.79150466      14897.40078530
 Nx A[3] Ny Nz        3895.26383489      18792.66462019
 Na X[2] Nyz        -28021.90627101      -9229.24165082
 Nx A[2] Nyz        -27232.51041803     -36461.75206885

@ Cubic response function value in a.u. for
@ A operator, symmetry, frequency:   ZDIPLEN    1 -0.058400
@ B operator, symmetry, frequency:   ZDIPLEN    1  0.058400
@ C operator, symmetry, frequency:   ZDIPLEN    1 -0.058400
@ D operator, symmetry, frequency:   ZDIPLEN    1  0.058400

@ << A; B, C, D >>  =      -36461.75206885



   Contribution                Term         Accumulated
 ------------------------------------------------------
 Na T[4] Nb Nc Nd     -102.01821563       -102.01821563
 Na T[3] Nx Nyz      -9640.98087294      -9742.99908858
 Na X[3] Ny Nz        9113.11229841       -629.88679017
 Nx A[3] Ny Nz        2521.42549844       1891.53870827
 Na X[2] Nyz        -50784.12989407     -48892.59118580
 Nx A[2] Nyz        -10019.65407781     -58912.24526361

@ Cubic response function value in a.u. for
@ A operator, symmetry, frequency:   XDIPLEN    2 -0.058400
@ B operator, symmetry, frequency:   XDIPLEN    2  0.058400
@ C operator, symmetry, frequency:   ZDIPLEN    1 -0.058400
@ D operator, symmetry, frequency:   ZDIPLEN    1  0.058400

@ << A; B, C, D >>  =      -58912.24526361



   Contribution                Term         Accumulated
 ------------------------------------------------------
 Na T[4] Nb Nc Nd     -581.83467319       -581.83467319
 Na T[3] Nx Nyz      -2142.60721495      -2724.44188813
 Na X[3] Ny Nz        1494.13619037      -1230.30569776
 Nx A[3] Ny Nz         640.20334139       -590.10235637
 Na X[2] Nyz         29375.86492336      28785.76256699
 Nx A[2] Nyz         19498.75126794      48284.51383493

@ Cubic response function value in a.u. for
@ A operator, symmetry, frequency:   YDIPLEN    3 -0.058400
@ B operator, symmetry, frequency:   YDIPLEN    3  0.058400
@ C operator, symmetry, frequency:   ZDIPLEN    1 -0.058400
@ D operator, symmetry, frequency:   ZDIPLEN    1  0.058400

@ << A; B, C, D >>  =       48284.51383493



   Contribution                Term         Accumulated
 ------------------------------------------------------
 Na T[4] Nb Nc Nd       83.72551988         83.72551988
 Na T[3] Nx Nyz     -27306.92495099     -27223.19943111
 Na X[3] Ny Nz        8193.94008235     -19029.25934876
 Nx A[3] Ny Nz        2217.10280717     -16812.15654159
 Na X[2] Nyz         49494.52629831      32682.36975672
 Nx A[2] Nyz        -43822.59805630     -11140.22829958

@ Cubic response function value in a.u. for
@ A operator, symmetry, frequency:   XDIPLEN    2 -0.058400
@ B operator, symmetry, frequency:   ZDIPLEN    1  0.058400
@ C operator, symmetry, frequency:   XDIPLEN    2 -0.058400
@ D operator, symmetry, frequency:   ZDIPLEN    1  0.058400

@ << A; B, C, D >>  =      -11140.22829958



   Contribution                Term         Accumulated
 ------------------------------------------------------
 Na T[4] Nb Nc Nd     -523.14420757       -523.14420757
 Na T[3] Nx Nyz       2555.68593780       2032.54173024
 Na X[3] Ny Nz        1265.74871315       3298.29044339
 Nx A[3] Ny Nz         564.22762096       3862.51806435
 Na X[2] Nyz        -17136.44593718     -13273.92787283
 Nx A[2] Nyz        -14275.18289914     -27549.11077198

@ Cubic response function value in a.u. for
@ A operator, symmetry, frequency:   YDIPLEN    3 -0.058400
@ B operator, symmetry, frequency:   ZDIPLEN    1  0.058400
@ C operator, symmetry, frequency:   YDIPLEN    3 -0.058400
@ D operator, symmetry, frequency:   ZDIPLEN    1  0.058400

@ << A; B, C, D >>  =      -27549.11077198



   Contribution                Term         Accumulated
 ------------------------------------------------------
 Na T[4] Nb Nc Nd     1939.54651519       1939.54651519
 Na T[3] Nx Nyz     -20718.86980970     -18779.32329450
 Na X[3] Ny Nz       12772.19084128      -6007.13245323
 Nx A[3] Ny Nz        4771.60750071      -1235.52495252
 Na X[2] Nyz        -52254.85881427     -53490.38376679
 Nx A[2] Nyz         42400.07338376     -11090.31038303

@ Cubic response function value in a.u. for
@ A operator, symmetry, frequency:   ZDIPLEN    1 -0.058400
@ B operator, symmetry, frequency:   XDIPLEN    2  0.058400
@ C operator, symmetry, frequency:   ZDIPLEN    1 -0.058400
@ D operator, symmetry, frequency:   XDIPLEN    2  0.058400

@ << A; B, C, D >>  =      -11090.31038303



   Contribution                Term         Accumulated
 ------------------------------------------------------
 Na T[4] Nb Nc Nd   126386.33942549     126386.33942549
 Na T[3] Nx Nyz    -145843.73564088     -19457.39621539
 Na X[3] Ny Nz       95734.70891043      76277.31269504
 Nx A[3] Ny Nz       31911.56963681     108188.88233185
 Na X[2] Nyz        -38082.67129773      70106.21103413
 Nx A[2] Nyz        -46669.53304016      23436.67799396

@ Cubic response function value in a.u. for
@ A operator, symmetry, frequency:   XDIPLEN    2 -0.058400
@ B operator, symmetry, frequency:   XDIPLEN    2  0.058400
@ C operator, symmetry, frequency:   XDIPLEN    2 -0.058400
@ D operator, symmetry, frequency:   XDIPLEN    2  0.058400

@ << A; B, C, D >>  =       23436.67799396



   Contribution                Term         Accumulated
 ------------------------------------------------------
 Na T[4] Nb Nc Nd    -1418.63726820      -1418.63726820
 Na T[3] Nx Nyz     -26087.97295132     -27506.61021952
 Na X[3] Ny Nz        4920.87361242     -22585.73660710
 Nx A[3] Ny Nz        1751.33613075     -20834.40047635
 Na X[2] Nyz        435973.91945288     415139.51897653
 Nx A[2] Nyz        273523.04861276     688662.56758929

@ Cubic response function value in a.u. for
@ A operator, symmetry, frequency:   YDIPLEN    3 -0.058400
@ B operator, symmetry, frequency:   YDIPLEN    3  0.058400
@ C operator, symmetry, frequency:   XDIPLEN    2 -0.058400
@ D operator, symmetry, frequency:   XDIPLEN    2  0.058400

@ << A; B, C, D >>  =      688662.56758929



   Contribution                Term         Accumulated
 ------------------------------------------------------
 Na T[4] Nb Nc Nd    -1016.61629062      -1016.61629062
 Na T[3] Nx Nyz       1811.19954172        794.58325110
 Na X[3] Ny Nz        3963.54304132       4758.12629242
 Nx A[3] Ny Nz        1366.31980233       6124.44609475
 Na X[2] Nyz        -20901.68794195     -14777.24184720
 Nx A[2] Nyz        -19824.06000841     -34601.30185560

@ Cubic response function value in a.u. for
@ A operator, symmetry, frequency:   YDIPLEN    3 -0.058400
@ B operator, symmetry, frequency:   XDIPLEN    2  0.058400
@ C operator, symmetry, frequency:   YDIPLEN    3 -0.058400
@ D operator, symmetry, frequency:   XDIPLEN    2  0.058400

@ << A; B, C, D >>  =      -34601.30185560



   Contribution                Term         Accumulated
 ------------------------------------------------------
 Na T[4] Nb Nc Nd     -520.24590482       -520.24590482
 Na T[3] Nx Nyz       1555.41036808       1035.16446327
 Na X[3] Ny Nz        1456.08568744       2491.25015070
 Nx A[3] Ny Nz         343.05051257       2834.30066328
 Na X[2] Nyz        -13670.95862242     -10836.65795915
 Nx A[2] Nyz        -16729.24929008     -27565.90724923

@ Cubic response function value in a.u. for
@ A operator, symmetry, frequency:   ZDIPLEN    1 -0.058400
@ B operator, symmetry, frequency:   YDIPLEN    3  0.058400
@ C operator, symmetry, frequency:   ZDIPLEN    1 -0.058400
@ D operator, symmetry, frequency:   YDIPLEN    3  0.058400

@ << A; B, C, D >>  =      -27565.90724923



   Contribution                Term         Accumulated
 ------------------------------------------------------
 Na T[4] Nb Nc Nd     -836.22042120       -836.22042120
 Na T[3] Nx Nyz       3376.35154238       2540.13112119
 Na X[3] Ny Nz        3009.39220236       5549.52332355
 Nx A[3] Ny Nz         957.99194556       6507.51526911
 Na X[2] Nyz        -19667.37428545     -13159.85901634
 Nx A[2] Nyz        -21421.90139396     -34581.76041030

@ Cubic response function value in a.u. for
@ A operator, symmetry, frequency:   XDIPLEN    2 -0.058400
@ B operator, symmetry, frequency:   YDIPLEN    3  0.058400
@ C operator, symmetry, frequency:   XDIPLEN    2 -0.058400
@ D operator, symmetry, frequency:   YDIPLEN    3  0.058400

@ << A; B, C, D >>  =      -34581.76041030



   Contribution                Term         Accumulated
 ------------------------------------------------------
 Na T[4] Nb Nc Nd    -1043.71382704      -1043.71382704
 Na T[3] Nx Nyz       4791.28952605       3747.57569901
 Na X[3] Ny Nz        3415.07115949       7162.64685850
 Nx A[3] Ny Nz        1138.35705316       8301.00391166
 Na X[2] Nyz        -21533.31105251     -13232.30714085
 Nx A[2] Nyz        -21606.66016258     -34838.96730343

@ Cubic response function value in a.u. for
@ A operator, symmetry, frequency:   YDIPLEN    3 -0.058400
@ B operator, symmetry, frequency:   YDIPLEN    3  0.058400
@ C operator, symmetry, frequency:   YDIPLEN    3 -0.058400
@ D operator, symmetry, frequency:   YDIPLEN    3  0.058400

@ << A; B, C, D >>  =      -34838.96730343



  Summary of gamma values for a set of frequencies
 -------------------------------------------------

@ B-freq:  0.058400
@ C-freq: -0.058400
@ D-freq:  0.058400

@ gamma(X;X,X,X)     -23436.6780
@ gamma(X;X,Y,Y)    -688662.5676
@ gamma(X;Y,Y,X)    -688662.5676
@ gamma(X;Y,X,Y)      34581.7604
@ gamma(X;X,Z,Z)      58912.2453
@ gamma(X;Z,Z,X)      58912.2453
@ gamma(X;Z,X,Z)      11140.2283
@ gamma(Y;Y,X,X)    -688662.5676
@ gamma(Y;X,X,Y)    -688662.5676
@ gamma(Y;X,Y,X)      34601.3019
@ gamma(Y;Y,Y,Y)      34838.9673
@ gamma(Y;Y,Z,Z)     -48284.5138
@ gamma(Y;Z,Z,Y)     -48284.5138
@ gamma(Y;Z,Y,Z)      27549.1108
@ gamma(Z;Z,X,X)      58912.2453
@ gamma(Z;X,X,Z)      58912.2453
@ gamma(Z;X,Z,X)      11090.3104
@ gamma(Z;Z,Y,Y)     -48284.5138
@ gamma(Z;Y,Y,Z)     -48284.5138
@ gamma(Z;Y,Z,Y)      27565.9072
@ gamma(Z;Z,Z,Z)      36461.7521

@ Averaged gamma parallel to the applied field is   -161467.906769

  Total CPU  time used in RESPONSE:   6 hours 57 minutes 34 seconds
  Total wall time used in RESPONSE:   6 hours 57 minutes 40 seconds


                   .-------------------------------------------.
                   | End of Dynamic Property Section (RESPONS) |
                   `-------------------------------------------'

  Total CPU  time used in DALTON:   8 hours 23 minutes 28 seconds
  Total wall time used in DALTON:   8 hours 23 minutes 36 seconds

 
     Date and time (Linux)  : Sat Feb 15 20:54:34 2020
     Host name              : Lab2-333-NPs                            
