

     ************************************************************************
     *************** Dalton - An Electronic Structure Program ***************
     ************************************************************************

    This is output from DALTON release Dalton2018.1 (2019)
         ( Web site: http://daltonprogram.org )

   ----------------------------------------------------------------------------

    NOTE:
     
    Dalton is an experimental code for the evaluation of molecular
    properties using (MC)SCF, DFT, CI, and CC wave functions.
    The authors accept no responsibility for the performance of
    the code or for the correctness of the results.
     
    The code (in whole or part) is provided under a licence and
    is not to be reproduced for further distribution without
    the written permission of the authors or their representatives.
     
    See the home page "http://daltonprogram.org" for further information.
     
    If results obtained with this code are published,
    the appropriate citations would be both of:
     
       K. Aidas, C. Angeli, K. L. Bak, V. Bakken, R. Bast,
       L. Boman, O. Christiansen, R. Cimiraglia, S. Coriani,
       P. Dahle, E. K. Dalskov, U. Ekstroem,
       T. Enevoldsen, J. J. Eriksen, P. Ettenhuber, B. Fernandez,
       L. Ferrighi, H. Fliegl, L. Frediani, K. Hald, A. Halkier,
       C. Haettig, H. Heiberg, T. Helgaker, A. C. Hennum,
       H. Hettema, E. Hjertenaes, S. Hoest, I.-M. Hoeyvik,
       M. F. Iozzi, B. Jansik, H. J. Aa. Jensen, D. Jonsson,
       P. Joergensen, J. Kauczor, S. Kirpekar,
       T. Kjaergaard, W. Klopper, S. Knecht, R. Kobayashi, H. Koch,
       J. Kongsted, A. Krapp, K. Kristensen, A. Ligabue,
       O. B. Lutnaes, J. I. Melo, K. V. Mikkelsen, R. H. Myhre,
       C. Neiss, C. B. Nielsen, P. Norman, J. Olsen,
       J. M. H. Olsen, A. Osted, M. J. Packer, F. Pawlowski,
       T. B. Pedersen, P. F. Provasi, S. Reine, Z. Rinkevicius,
       T. A. Ruden, K. Ruud, V. Rybkin, P. Salek, C. C. M. Samson,
       A. Sanchez de Meras, T. Saue, S. P. A. Sauer,
       B. Schimmelpfennig, K. Sneskov, A. H. Steindal,
       K. O. Sylvester-Hvid, P. R. Taylor, A. M. Teale,
       E. I. Tellgren, D. P. Tew, A. J. Thorvaldsen, L. Thoegersen,
       O. Vahtras, M. A. Watson, D. J. D. Wilson, M. Ziolkowski
       and H. Agren,
       "The Dalton quantum chemistry program system",
       WIREs Comput. Mol. Sci. 2014, 4:269–284 (doi: 10.1002/wcms.1172)
     
    and
     
       Dalton, a molecular electronic structure program,
       Release Dalton2018.1 (2019), see http://daltonprogram.org
   ----------------------------------------------------------------------------

    Authors in alphabetical order (major contribution(s) in parenthesis):

  Kestutis Aidas,           Vilnius University,           Lithuania   (QM/MM)
  Celestino Angeli,         University of Ferrara,        Italy       (NEVPT2)
  Keld L. Bak,              UNI-C,                        Denmark     (AOSOPPA, non-adiabatic coupling, magnetic properties)
  Vebjoern Bakken,          University of Oslo,           Norway      (DALTON; geometry optimizer, symmetry detection)
  Radovan Bast,             UiT The Arctic U. of Norway,  Norway      (DALTON installation and execution frameworks)
  Pablo Baudin,             University of Valencia,       Spain       (Cholesky excitation energies)
  Linus Boman,              NTNU,                         Norway      (Cholesky decomposition and subsystems)
  Ove Christiansen,         Aarhus University,            Denmark     (CC module)
  Renzo Cimiraglia,         University of Ferrara,        Italy       (NEVPT2)
  Sonia Coriani,            Technical Univ. of Denmark,   Denmark     (CC module, MCD in RESPONS)
  Janusz Cukras,            University of Trieste,        Italy       (MChD in RESPONS)
  Paal Dahle,               University of Oslo,           Norway      (Parallelization)
  Erik K. Dalskov,          UNI-C,                        Denmark     (SOPPA)
  Thomas Enevoldsen,        Univ. of Southern Denmark,    Denmark     (SOPPA)
  Janus J. Eriksen,         Aarhus University,            Denmark     (Polarizable embedding model, TDA)
  Rasmus Faber,             University of Copenhagen,     Denmark     (Vib.avg. NMR with SOPPA, parallel AO-SOPPA)
  Tobias Fahleson,          KTH Stockholm,                Sweden      (Damped cubic response)
  Berta Fernandez,          U. of Santiago de Compostela, Spain       (doublet spin, ESR in RESPONS)
  Lara Ferrighi,            Aarhus University,            Denmark     (PCM Cubic response)
  Heike Fliegl,             University of Oslo,           Norway      (CCSD(R12))
  Luca Frediani,            UiT The Arctic U. of Norway,  Norway      (PCM)
  Bin Gao,                  UiT The Arctic U. of Norway,  Norway      (Gen1Int library)
  Christof Haettig,         Ruhr-University Bochum,       Germany     (CC module)
  Kasper Hald,              Aarhus University,            Denmark     (CC module)
  Asger Halkier,            Aarhus University,            Denmark     (CC module)
  Frederik Beyer Hansen,    University of Copenhagen,     Denmark     (Parallel AO-SOPPA)
  Erik D. Hedegaard,        Univ. of Southern Denmark,    Denmark     (Polarizable embedding model, QM/MM)
  Hanne Heiberg,            University of Oslo,           Norway      (geometry analysis, selected one-electron integrals)
  Trygve Helgaker,          University of Oslo,           Norway      (DALTON; ABACUS, ERI, DFT modules, London, and much more)
  Alf Christian Hennum,     University of Oslo,           Norway      (Parity violation)
  Hinne Hettema,            University of Auckland,       New Zealand (quadratic response in RESPONS; SIRIUS supersymmetry)
  Eirik Hjertenaes,         NTNU,                         Norway      (Cholesky decomposition)
  Pi A. B. Haase,           University of Copenhagen,     Denmark     (Triplet AO-SOPPA)
  Maria Francesca Iozzi,    University of Oslo,           Norway      (RPA)
  Christoph Jacob           TU Braunschweig               Germany     (Frozen density embedding model)
  Brano Jansik              Technical Univ. of Ostrava    Czech Rep.  (DFT cubic response)
  Hans Joergen Aa. Jensen,  Univ. of Southern Denmark,    Denmark     (DALTON; SIRIUS, RESPONS, ABACUS modules, London, and much more)
  Dan Jonsson,              UiT The Arctic U. of Norway,  Norway      (cubic response in RESPONS module)
  Poul Joergensen,          Aarhus University,            Denmark     (RESPONS, ABACUS, and CC modules)
  Maciej Kaminski,          University of Warsaw,         Poland      (CPPh in RESPONS)
  Joanna Kauczor,           Linkoeping University,        Sweden      (Complex polarization propagator (CPP) module)
  Sheela Kirpekar,          Univ. of Southern Denmark,    Denmark     (Mass-velocity & Darwin integrals)
  Wim Klopper,              KIT Karlsruhe,                Germany     (R12 code in CC, SIRIUS, and ABACUS modules)
  Stefan Knecht,            ETH Zurich,                   Switzerland (Parallel CI and MCSCF)
  Rika Kobayashi,           Australian National Univ.,    Australia   (DIIS in CC, London in MCSCF)
  Henrik Koch,              NTNU,                         Norway      (CC module, Cholesky decomposition)
  Jacob Kongsted,           Univ. of Southern Denmark,    Denmark     (Polarizable embedding model, QM/MM)
  Andrea Ligabue,           University of Modena,         Italy       (CTOCD, AOSOPPA)
  Nanna H. List             Univ. of Southern Denmark,    Denmark     (Polarizable embedding model)
  Ola B. Lutnaes,           University of Oslo,           Norway      (DFT Hessian)
  Juan I. Melo,             University of Buenos Aires,   Argentina   (LRESC, Relativistic Effects on NMR Shieldings)
  Kurt V. Mikkelsen,        University of Copenhagen,     Denmark     (MC-SCRF and QM/MM)
  Rolf H. Myhre,            NTNU,                         Norway      (Subsystems and CC3)
  Christian Neiss,          Univ. Erlangen-Nuernberg,     Germany     (CCSD(R12))
  Christian B. Nielsen,     University of Copenhagen,     Denmark     (QM/MM)
  Patrick Norman,           KTH Stockholm,                Sweden      (Cubic response and complex frequency response in RESPONS)
  Jeppe Olsen,              Aarhus University,            Denmark     (SIRIUS CI/density modules)
  Jogvan Magnus H. Olsen,   Univ. of Southern Denmark,    Denmark     (Polarizable embedding model, QM/MM)
  Anders Osted,             Copenhagen University,        Denmark     (QM/MM)
  Martin J. Packer,         University of Sheffield,      UK          (SOPPA)
  Filip Pawlowski,          Kazimierz Wielki University,  Poland      (CC3)
  Morten N. Pedersen,       Univ. of Southern Denmark,    Denmark     (Polarizable embedding model)
  Thomas B. Pedersen,       University of Oslo,           Norway      (Cholesky decomposition)
  Patricio F. Provasi,      University of Northeastern,   Argentina   (Analysis of coupling constants in localized orbitals)
  Zilvinas Rinkevicius,     KTH Stockholm,                Sweden      (open-shell DFT, ESR)
  Elias Rudberg,            KTH Stockholm,                Sweden      (DFT grid and basis info)
  Torgeir A. Ruden,         University of Oslo,           Norway      (Numerical derivatives in ABACUS)
  Kenneth Ruud,             UiT The Arctic U. of Norway,  Norway      (DALTON; ABACUS magnetic properties and much more)
  Pawel Salek,              KTH Stockholm,                Sweden      (DALTON; DFT code)
  Claire C. M. Samson       University of Karlsruhe       Germany     (Boys localization, r12 integrals in ERI)
  Alfredo Sanchez de Meras, University of Valencia,       Spain       (CC module, Cholesky decomposition)
  Trond Saue,               Paul Sabatier University,     France      (direct Fock matrix construction)
  Stephan P. A. Sauer,      University of Copenhagen,     Denmark     (SOPPA(CCSD), SOPPA prop., AOSOPPA, vibrational g-factors)
  Andre S. P. Gomes,        CNRS/Universite de Lille,     France      (Frozen density embedding model)
  Bernd Schimmelpfennig,    Forschungszentrum Karlsruhe,  Germany     (AMFI module)
  Kristian Sneskov,         Aarhus University,            Denmark     (Polarizable embedding model, QM/MM)
  Arnfinn H. Steindal,      UiT The Arctic U. of Norway,  Norway      (parallel QM/MM, Polarizable embedding model)
  Casper Steinmann,         Univ. of Southern Denmark,    Denmark     (QFIT, Polarizable embedding model)
  K. O. Sylvester-Hvid,     University of Copenhagen,     Denmark     (MC-SCRF)
  Peter R. Taylor,          VLSCI/Univ. of Melbourne,     Australia   (Symmetry handling ABACUS, integral transformation)
  Andrew M. Teale,          University of Nottingham,     England     (DFT-AC, DFT-D)
  David P. Tew,             University of Bristol,        England     (CCSD(R12))
  Olav Vahtras,             KTH Stockholm,                Sweden      (triplet response, spin-orbit, ESR, TDDFT, open-shell DFT)
  Lucas Visscher,           Vrije Universiteit Amsterdam, Netherlands (Frozen density embedding model)
  David J. Wilson,          La Trobe University,          Australia   (DFT Hessian and DFT magnetizabilities)
  Hans Agren,               KTH Stockholm,                Sweden      (SIRIUS module, RESPONS, MC-SCRF solvation model)
 --------------------------------------------------------------------------------

     Date and time (Linux)  : Sun Feb  9 11:50:43 2020
     Host name              : Lab2-333-NPs                            

 * Work memory size             :  1024000000 =  7.629 gigabytes.

 * Directories for basis set searches:
   1) /home/lab333/dalton/build_2018_atlas
   2) /home/lab333/dalton/build_2018_atlas/basis


Compilation information
-----------------------

 Who compiled             | lab333
 Host                     | Lab2-333-NPs
 System                   | Linux-4.4.0-43-Microsoft
 CMake generator          | Unix Makefiles
 Processor                | x86_64
 64-bit integers          | OFF
 MPI                      | OFF
 Fortran compiler         | /usr/bin/gfortran
 Fortran compiler version | GNU Fortran (Ubuntu 7.3.0-27ubuntu1~18.04) 7.3.0
 C compiler               | /usr/bin/gcc
 C compiler version       | gcc (Ubuntu 7.3.0-27ubuntu1~18.04) 7.3.0
 C++ compiler             | /usr/bin/g++
 C++ compiler version     | g++ (Ubuntu 7.3.0-27ubuntu1~18.04) 7.3.0
 BLAS                     | /usr/lib/x86_64-linux-gnu/libf77blas.so;/usr/lib/x
                          | 86_64-linux-gnu/libcblas.so;/usr/lib/x86_64-linux-
                          | gnu/libatlas.so
 LAPACK                   | /usr/lib/x86_64-linux-gnu/libatlas.so;/usr/lib/x86
                          | _64-linux-gnu/atlas/liblapack.so
 Static linking           | OFF
 Last Git revision        | da625bf48c74028e805616daee31bc5d76b3a20d
 Git branch               | (HEAD detached at Dalton2018.1)
 Configuration time       | 2019-01-18 10:20:51.437510


   Content of the .dal input file
 ----------------------------------

**DALTON INPUT
.RUN RESPONSE
.DIRECT
**WAVE FUNCTIONS
.HF
.MP2
.MCSCF
*CONFIGURATION INPUT
.SPIN MULTIPLICITY
3
.SYMMETRY
1
.INACTIVE ORBITALS
15 10 2 0
.CAS SPACE
1 1 2 3
.ELECTRONS
10
*ORBITAL INPUT
.MOSTART
.HUCKEL
*OPTIMIZATION
.DETERMINANTS
.STATE
2
*CI VECTOR
.PLUS COMBINATIONS
**RESPONSE
*CUBIC
.DIPLEN
.BFREQ
1
0.0584
.CFREQ
1
-0.0584
.DFREQ
1
0.0584
**END OF DALTON INPUT


   Content of the .mol file
 ----------------------------

BASIS
aug-cc-pCVDZ
 nitrobenzene
 Generated by the Dalton Input File Plugin for Avogadro
Atomtypes=4 Angstrom Generators=2 X Y
Charge=6.0 Atoms=4
C        0.0000000000            0.0000000000           -0.0265759623
C       -1.2190534920            0.0000000000           -0.6979856948
C       -1.2105095870            0.0000000000           -2.0897394457
C        0.0000000000            0.0000000000           -2.7841484631
Charge=7.0 Atoms=1
N        0.0000000000            0.0000000000            1.4549291696
Charge=8.0 Atoms=1
O       1.1291110386793457            0.0            1.9294321793041695
Charge=1.0 Atoms=3
H       -2.1410602955            0.0000000000           -0.1327964319
H       -2.1492827751            0.0000000000           -2.6311811056
H        0.0000000000            0.0000000000           -3.8683953478


       *******************************************************************
       *********** Output from DALTON general input processing ***********
       *******************************************************************

 --------------------------------------------------------------------------------
   Overall default print level:    0
   Print level for DALTON.STAT:    1

    AO-direct calculation (in sections where implemented)
    HERMIT 1- and 2-electron integral sections will be executed
    "Old" integral transformation used (limited to max 255 basis functions)
    Wave function sections will be executed (SIRIUS module)
    Dynamic molecular response properties section will be executed (RESPONSE module)
 --------------------------------------------------------------------------------


   ****************************************************************************
   *************** Output of molecule and basis set information ***************
   ****************************************************************************


    The two title cards from your ".mol" input:
    ------------------------------------------------------------------------
 1:  nitrobenzene                                                           
 2:  Generated by the Dalton Input File Plugin for Avogadro                 
    ------------------------------------------------------------------------

  Coordinates are entered in Angstrom and converted to atomic units.
          - Conversion factor : 1 bohr = 0.52917721 A

  Atomic type no.    1
  --------------------
  Nuclear charge:   6.00000
  Number of symmetry independent centers:    4
  Number of basis sets to read;    2
  Basis set file used for this atomic type with Z =   6 :
     "/home/lab333/dalton/build_2018_atlas/basis/aug-cc-pCVDZ"

  Atomic type no.    2
  --------------------
  Nuclear charge:   7.00000
  Number of symmetry independent centers:    1
  Number of basis sets to read;    2
  Basis set file used for this atomic type with Z =   7 :
     "/home/lab333/dalton/build_2018_atlas/basis/aug-cc-pCVDZ"

  Atomic type no.    3
  --------------------
  Nuclear charge:   8.00000
  Number of symmetry independent centers:    1
  Number of basis sets to read;    2
  Basis set file used for this atomic type with Z =   8 :
     "/home/lab333/dalton/build_2018_atlas/basis/aug-cc-pCVDZ"

  Atomic type no.    4
  --------------------
  Nuclear charge:   1.00000
  Number of symmetry independent centers:    3
  Number of basis sets to read;    2
  Basis set file used for this atomic type with Z =   1 :
     "/home/lab333/dalton/build_2018_atlas/basis/aug-cc-pCVDZ"


                         SYMGRP: Point group information
                         -------------------------------

@    Point group: C2v

@  * The irrep name for each symmetry:    1: A1     2: B1     3: B2     4: A2 

   * The point group was generated by:

      Reflection in the yz-plane
      Reflection in the xz-plane

   * Group multiplication table

        |  E   C2z  Oxz  Oyz
   -----+--------------------
     E  |  E   C2z  Oxz  Oyz
    C2z | C2z   E   Oyz  Oxz
    Oxz | Oxz  Oyz   E   C2z
    Oyz | Oyz  Oxz  C2z   E 

   * Character table

        |  E   C2z  Oxz  Oyz
   -----+--------------------
    A1  |   1    1    1    1
    B1  |   1   -1    1   -1
    B2  |   1   -1   -1    1
    A2  |   1    1   -1   -1

   * Direct product table

        | A1   B1   B2   A2 
   -----+--------------------
    A1  | A1   B1   B2   A2 
    B1  | B1   A1   A2   B2 
    B2  | B2   A2   A1   B1 
    A2  | A2   B2   B1   A1 


                                 Isotopic Masses
                                 ---------------

                           C          12.000000
                           C   _1     12.000000
                           C   _2     12.000000
                           C   _1     12.000000
                           C   _2     12.000000
                           C          12.000000
                           N          14.003074
                           O   _1     15.994915
                           O   _2     15.994915
                           H   _1      1.007825
                           H   _2      1.007825
                           H   _1      1.007825
                           H   _2      1.007825
                           H           1.007825

                       Total mass:   123.032029 amu
                       Natural abundance:  92.716 %

 Center-of-mass coordinates (a.u.):    0.000000    0.000000   -0.430197


  Atoms and basis sets
  --------------------

  Number of atom types :    4
  Total number of atoms:   14

  Basis set used is "aug-cc-pCVDZ" from the basis set library.

  label    atoms   charge   prim   cont     basis
  ----------------------------------------------------------------------
  C           6    6.0000    39    27      [11s6p2d|5s4p2d]                                   
  N           1    7.0000    39    27      [11s6p2d|5s4p2d]                                   
  O           2    8.0000    39    27      [11s6p2d|5s4p2d]                                   
  H           5    1.0000    11     9      [5s2p|3s2p]                                        
  ----------------------------------------------------------------------
  total:     14   64.0000   406   288
  ----------------------------------------------------------------------
  Spherical harmonic basis used.

  Threshold for neglecting AO integrals:  1.00D-12


  Symmetry Coordinates
  --------------------

  Number of coordinates in each symmetry:    14   14    9    5


   Interatomic separations (in Angstrom):
   --------------------------------------

            C           C   _1      C   _2      C   _1      C   _2      C     
            ------      ------      ------      ------      ------      ------
 C     :    0.000000
 C   _1:    1.391719    0.000000
 C   _2:    1.391719    2.438107    0.000000
 C   _1:    2.392065    1.391780    2.799956    0.000000
 C   _2:    2.392065    2.799956    1.391780    2.421019    0.000000
 C     :    2.757573    2.416230    2.416230    1.395542    1.395542    0.000000
 N     :    1.481505    2.474093    2.474093    3.745665    3.745665    4.239078
 O   _1:    2.258508    3.523805    2.628957    4.650545    4.019996    4.846930
 O   _2:    2.258508    2.628957    3.523805    4.019996    4.650545    4.846930
 H   _1:    2.143694    1.081451    3.407316    2.166922    3.881063    3.407904
 H   _2:    2.143694    3.407316    1.081451    3.881063    2.166922    3.407904
 H   _1:    3.376890    2.145360    3.883675    1.083722    3.403140    2.154719
 H   _2:    3.376890    3.883675    2.145360    3.403140    1.083722    2.154719
 H     :    3.841819    3.396703    3.396703    2.151500    2.151500    1.084247

            N           O   _1      O   _2      H   _1      H   _2      H   _1
            ------      ------      ------      ------      ------      ------
 N     :    0.000000
 O   _1:    1.224763    0.000000
 O   _2:    1.224763    2.258222    0.000000
 H   _1:    2.665523    3.866110    2.297135    0.000000
 H   _2:    2.665523    2.297135    3.866110    4.282121    0.000000
 H   _1:    4.616894    5.616677    4.673323    2.498398    4.964773    0.000000
 H   _2:    4.616894    4.673323    5.616677    4.964773    2.498398    4.298566
 H     :    5.323325    5.906750    5.906750    4.305675    4.305675    2.479943

            H   _2      H     
            ------      ------
 H   _2:    0.000000
 H     :    2.479943    0.000000


  Max    interatomic separation is    5.9068 Angstrom (   11.1621 Bohr)
  between atoms   14 and    8, "H     " and "O   _1".

  Min HX interatomic separation is    1.0815 Angstrom (    2.0436 Bohr)

  Min YX interatomic separation is    1.2248 Angstrom (    2.3145 Bohr)


  Bond distances (Angstrom):
  --------------------------

                  atom 1     atom 2       distance
                  ------     ------       --------
  bond distance:  C   _1     C            1.391719
  bond distance:  C   _2     C            1.391719
  bond distance:  C   _1     C   _1       1.391780
  bond distance:  C   _2     C   _2       1.391780
  bond distance:  C          C   _1       1.395542
  bond distance:  C          C   _2       1.395542
  bond distance:  N          C            1.481505
  bond distance:  O   _1     N            1.224763
  bond distance:  O   _2     N            1.224763
  bond distance:  H   _1     C   _1       1.081451
  bond distance:  H   _2     C   _2       1.081451
  bond distance:  H   _1     C   _1       1.083722
  bond distance:  H   _2     C   _2       1.083722
  bond distance:  H          C            1.084247


  Bond angles (degrees):
  ----------------------

                  atom 1     atom 2     atom 3         angle
                  ------     ------     ------         -----
  bond angle:     C   _1     C          C   _2       122.311
  bond angle:     C   _1     C          N            118.844
  bond angle:     C   _2     C          N            118.844
  bond angle:     C          C   _1     C   _1       118.493
  bond angle:     C          C   _1     H   _1       119.647
  bond angle:     C   _1     C   _1     H   _1       121.860
  bond angle:     C          C   _2     C   _2       118.493
  bond angle:     C          C   _2     H   _2       119.647
  bond angle:     C   _2     C   _2     H   _2       121.860
  bond angle:     C   _1     C   _1     C            120.192
  bond angle:     C   _1     C   _1     H   _1       119.623
  bond angle:     C          C   _1     H   _1       120.185
  bond angle:     C   _2     C   _2     C            120.192
  bond angle:     C   _2     C   _2     H   _2       119.623
  bond angle:     C          C   _2     H   _2       120.185
  bond angle:     C   _1     C          C   _2       120.319
  bond angle:     C   _1     C          H            119.841
  bond angle:     C   _2     C          H            119.841
  bond angle:     C          N          O   _1       112.794
  bond angle:     C          N          O   _2       112.794
  bond angle:     O   _1     N          O   _2       134.411




 Principal moments of inertia (u*A**2) and principal axes
 --------------------------------------------------------

   IA     130.168914          0.000000    0.000000    1.000000
   IB     380.953336          1.000000    0.000000    0.000000
   IC     511.122250          0.000000    1.000000    0.000000


 Rotational constants
 --------------------

@    The molecule is planar.

               A                   B                   C

           3882.4862           1326.6166            988.7635 MHz
            0.129506            0.044251            0.032982 cm-1


@  Nuclear repulsion energy :  413.807617726069 Hartree


  Symmetry Orbitals
  -----------------

  Number of orbitals in each symmetry:         115   91   48   34


  Symmetry  A1 ( 1)

    1     C        1s         1
    2     C        1s         2
    3     C        1s         3
    4     C        1s         4
    5     C        1s         5
    6     C        2pz        8
    7     C        2pz       11
    8     C        2pz       14
    9     C        2pz       17
   10     C        3d0       20
   11     C        3d2+      22
   12     C        3d0       25
   13     C        3d2+      27
   14     C        1s        28 +   29
   15     C        1s        30 +   31
   16     C        1s        32 +   33
   17     C        1s        34 +   35
   18     C        1s        36 +   37
   19     C        2px       38 -   39
   20     C        2pz       42 +   43
   21     C        2px       44 -   45
   22     C        2pz       48 +   49
   23     C        2px       50 -   51
   24     C        2pz       54 +   55
   25     C        2px       56 -   57
   26     C        2pz       60 +   61
   27     C        3d0       66 +   67
   28     C        3d1+      68 -   69
   29     C        3d2+      70 +   71
   30     C        3d0       76 +   77
   31     C        3d1+      78 -   79
   32     C        3d2+      80 +   81
   33     C        1s        82 +   83
   34     C        1s        84 +   85
   35     C        1s        86 +   87
   36     C        1s        88 +   89
   37     C        1s        90 +   91
   38     C        2px       92 -   93
   39     C        2pz       96 +   97
   40     C        2px       98 -   99
   41     C        2pz      102 +  103
   42     C        2px      104 -  105
   43     C        2pz      108 +  109
   44     C        2px      110 -  111
   45     C        2pz      114 +  115
   46     C        3d0      120 +  121
   47     C        3d1+     122 -  123
   48     C        3d2+     124 +  125
   49     C        3d0      130 +  131
   50     C        3d1+     132 -  133
   51     C        3d2+     134 +  135
   52     C        1s       136
   53     C        1s       137
   54     C        1s       138
   55     C        1s       139
   56     C        1s       140
   57     C        2pz      143
   58     C        2pz      146
   59     C        2pz      149
   60     C        2pz      152
   61     C        3d0      155
   62     C        3d2+     157
   63     C        3d0      160
   64     C        3d2+     162
   65     N        1s       163
   66     N        1s       164
   67     N        1s       165
   68     N        1s       166
   69     N        1s       167
   70     N        2pz      170
   71     N        2pz      173
   72     N        2pz      176
   73     N        2pz      179
   74     N        3d0      182
   75     N        3d2+     184
   76     N        3d0      187
   77     N        3d2+     189
   78     O        1s       190 +  191
   79     O        1s       192 +  193
   80     O        1s       194 +  195
   81     O        1s       196 +  197
   82     O        1s       198 +  199
   83     O        2px      200 -  201
   84     O        2pz      204 +  205
   85     O        2px      206 -  207
   86     O        2pz      210 +  211
   87     O        2px      212 -  213
   88     O        2pz      216 +  217
   89     O        2px      218 -  219
   90     O        2pz      222 +  223
   91     O        3d0      228 +  229
   92     O        3d1+     230 -  231
   93     O        3d2+     232 +  233
   94     O        3d0      238 +  239
   95     O        3d1+     240 -  241
   96     O        3d2+     242 +  243
   97     H        1s       244 +  245
   98     H        1s       246 +  247
   99     H        1s       248 +  249
  100     H        2px      250 -  251
  101     H        2pz      254 +  255
  102     H        2px      256 -  257
  103     H        2pz      260 +  261
  104     H        1s       262 +  263
  105     H        1s       264 +  265
  106     H        1s       266 +  267
  107     H        2px      268 -  269
  108     H        2pz      272 +  273
  109     H        2px      274 -  275
  110     H        2pz      278 +  279
  111     H        1s       280
  112     H        1s       281
  113     H        1s       282
  114     H        2pz      285
  115     H        2pz      288


  Symmetry  B1 ( 2)

  116     C        2px        6
  117     C        2px        9
  118     C        2px       12
  119     C        2px       15
  120     C        3d1+      21
  121     C        3d1+      26
  122     C        1s        28 -   29
  123     C        1s        30 -   31
  124     C        1s        32 -   33
  125     C        1s        34 -   35
  126     C        1s        36 -   37
  127     C        2px       38 +   39
  128     C        2pz       42 -   43
  129     C        2px       44 +   45
  130     C        2pz       48 -   49
  131     C        2px       50 +   51
  132     C        2pz       54 -   55
  133     C        2px       56 +   57
  134     C        2pz       60 -   61
  135     C        3d0       66 -   67
  136     C        3d1+      68 +   69
  137     C        3d2+      70 -   71
  138     C        3d0       76 -   77
  139     C        3d1+      78 +   79
  140     C        3d2+      80 -   81
  141     C        1s        82 -   83
  142     C        1s        84 -   85
  143     C        1s        86 -   87
  144     C        1s        88 -   89
  145     C        1s        90 -   91
  146     C        2px       92 +   93
  147     C        2pz       96 -   97
  148     C        2px       98 +   99
  149     C        2pz      102 -  103
  150     C        2px      104 +  105
  151     C        2pz      108 -  109
  152     C        2px      110 +  111
  153     C        2pz      114 -  115
  154     C        3d0      120 -  121
  155     C        3d1+     122 +  123
  156     C        3d2+     124 -  125
  157     C        3d0      130 -  131
  158     C        3d1+     132 +  133
  159     C        3d2+     134 -  135
  160     C        2px      141
  161     C        2px      144
  162     C        2px      147
  163     C        2px      150
  164     C        3d1+     156
  165     C        3d1+     161
  166     N        2px      168
  167     N        2px      171
  168     N        2px      174
  169     N        2px      177
  170     N        3d1+     183
  171     N        3d1+     188
  172     O        1s       190 -  191
  173     O        1s       192 -  193
  174     O        1s       194 -  195
  175     O        1s       196 -  197
  176     O        1s       198 -  199
  177     O        2px      200 +  201
  178     O        2pz      204 -  205
  179     O        2px      206 +  207
  180     O        2pz      210 -  211
  181     O        2px      212 +  213
  182     O        2pz      216 -  217
  183     O        2px      218 +  219
  184     O        2pz      222 -  223
  185     O        3d0      228 -  229
  186     O        3d1+     230 +  231
  187     O        3d2+     232 -  233
  188     O        3d0      238 -  239
  189     O        3d1+     240 +  241
  190     O        3d2+     242 -  243
  191     H        1s       244 -  245
  192     H        1s       246 -  247
  193     H        1s       248 -  249
  194     H        2px      250 +  251
  195     H        2pz      254 -  255
  196     H        2px      256 +  257
  197     H        2pz      260 -  261
  198     H        1s       262 -  263
  199     H        1s       264 -  265
  200     H        1s       266 -  267
  201     H        2px      268 +  269
  202     H        2pz      272 -  273
  203     H        2px      274 +  275
  204     H        2pz      278 -  279
  205     H        2px      283
  206     H        2px      286


  Symmetry  B2 ( 3)

  207     C        2py        7
  208     C        2py       10
  209     C        2py       13
  210     C        2py       16
  211     C        3d1-      19
  212     C        3d1-      24
  213     C        2py       40 +   41
  214     C        2py       46 +   47
  215     C        2py       52 +   53
  216     C        2py       58 +   59
  217     C        3d2-      62 -   63
  218     C        3d1-      64 +   65
  219     C        3d2-      72 -   73
  220     C        3d1-      74 +   75
  221     C        2py       94 +   95
  222     C        2py      100 +  101
  223     C        2py      106 +  107
  224     C        2py      112 +  113
  225     C        3d2-     116 -  117
  226     C        3d1-     118 +  119
  227     C        3d2-     126 -  127
  228     C        3d1-     128 +  129
  229     C        2py      142
  230     C        2py      145
  231     C        2py      148
  232     C        2py      151
  233     C        3d1-     154
  234     C        3d1-     159
  235     N        2py      169
  236     N        2py      172
  237     N        2py      175
  238     N        2py      178
  239     N        3d1-     181
  240     N        3d1-     186
  241     O        2py      202 +  203
  242     O        2py      208 +  209
  243     O        2py      214 +  215
  244     O        2py      220 +  221
  245     O        3d2-     224 -  225
  246     O        3d1-     226 +  227
  247     O        3d2-     234 -  235
  248     O        3d1-     236 +  237
  249     H        2py      252 +  253
  250     H        2py      258 +  259
  251     H        2py      270 +  271
  252     H        2py      276 +  277
  253     H        2py      284
  254     H        2py      287


  Symmetry  A2 ( 4)

  255     C        3d2-      18
  256     C        3d2-      23
  257     C        2py       40 -   41
  258     C        2py       46 -   47
  259     C        2py       52 -   53
  260     C        2py       58 -   59
  261     C        3d2-      62 +   63
  262     C        3d1-      64 -   65
  263     C        3d2-      72 +   73
  264     C        3d1-      74 -   75
  265     C        2py       94 -   95
  266     C        2py      100 -  101
  267     C        2py      106 -  107
  268     C        2py      112 -  113
  269     C        3d2-     116 +  117
  270     C        3d1-     118 -  119
  271     C        3d2-     126 +  127
  272     C        3d1-     128 -  129
  273     C        3d2-     153
  274     C        3d2-     158
  275     N        3d2-     180
  276     N        3d2-     185
  277     O        2py      202 -  203
  278     O        2py      208 -  209
  279     O        2py      214 -  215
  280     O        2py      220 -  221
  281     O        3d2-     224 +  225
  282     O        3d1-     226 -  227
  283     O        3d2-     234 +  235
  284     O        3d1-     236 -  237
  285     H        2py      252 -  253
  286     H        2py      258 -  259
  287     H        2py      270 -  271
  288     H        2py      276 -  277

  Symmetries of electric field:  B1 (2)  B2 (3)  A1 (1)

  Symmetries of magnetic field:  B2 (3)  B1 (2)  A2 (4)


                     .---------------------------------------.
                     | Starting in Integral Section (HERMIT) |
                     `---------------------------------------'



 ***************************************************************************************
 ****************** Output from **INTEGRALS input processing (HERMIT) ******************
 ***************************************************************************************


 - Using defaults, no **INTEGRALS input found

 Default print level:        1

 Calculation of one-electron Hamiltonian integrals.

 Center of mass  (bohr):      0.000000000000      0.000000000000     -0.430196823581
 Operator center (bohr):      0.000000000000      0.000000000000      0.000000000000
 Gauge origin    (bohr):      0.000000000000      0.000000000000      0.000000000000
 Dipole origin   (bohr):      0.000000000000      0.000000000000      0.000000000000


     ************************************************************************
     ************************** Output from HERINT **************************
     ************************************************************************



                      Nuclear contribution to dipole moments
                      --------------------------------------

                 au               Debye          C m (/(10**-30)

      z    -35.25847150       -89.61808975      -298.93377021


  Time used in GABGEN     is       0.12 seconds
  Total CPU  time used in HERMIT:   0.45 seconds
  Total wall time used in HERMIT:   0.44 seconds


                        .----------------------------------.
                        | End of Integral Section (HERMIT) |
                        `----------------------------------'



                   .--------------------------------------------.
                   | Starting in Wave Function Section (SIRIUS) |
                   `--------------------------------------------'


 *** Output from Huckel module :

     Using EWMO model:          F
     Using EHT  model:          T
     Number of Huckel orbitals each symmetry:   24   17    6    3

 Huckel EHT eigenvalues for symmetry :  1
          -20.694346     -15.706041     -11.415054     -11.394653     -11.376771
          -11.362605      -1.751304      -1.551239      -1.186521      -0.937430
           -0.814913      -0.792838      -0.638613      -0.585760      -0.485328
           -0.427021      -0.337319      -0.248603      -0.226286      -0.213763
           -0.205797      -0.178734      -0.166168      -0.160474

 Huckel EHT eigenvalues for symmetry :  2
          -20.702386     -11.396486     -11.377864      -1.419755      -1.201667
           -0.878478      -0.644648      -0.579828      -0.525962      -0.476562
           -0.414387      -0.264423      -0.213014      -0.202819      -0.176222
           -0.165350      -0.163265

 Huckel EHT eigenvalues for symmetry :  3
           -0.801435      -0.669190      -0.463388      -0.385011      -0.281861
           -0.236549

 Huckel EHT eigenvalues for symmetry :  4
           -0.596336      -0.459950      -0.288779

 **********************************************************************
 *SIRIUS* a direct, restricted step, second order MCSCF program       *
 **********************************************************************

 
     Date and time (Linux)  : Sun Feb  9 11:50:43 2020
     Host name              : Lab2-333-NPs                            

 Title lines from ".mol" input file:
      nitrobenzene                                                           
      Generated by the Dalton Input File Plugin for Avogadro                 

 Print level on unit LUPRI =   2 is   0
 Print level on unit LUW4  =   2 is   5

@    MC-SCF optimization.

@    Multi-configurational response calculation.
@              Type: complete active space calculation (CAS).

@    This is a combination run starting with
@              a restricted, closed shell Hartree-Fock calculation
@              an MP2 calculation

 Fock matrices are calculated directly without use of integrals on disk.

 Initial molecular orbitals are obtained according to
 ".MOSTART EHT   " input option

     Wave function specification
     ============================
@    Wave function type        --- MC-SCF ---
@    Number of closed shell electrons          54
@    Number of electrons in active shells      10
@    Total charge of the molecule               0

@    Spin multiplicity and 2 M_S                3         2
@    Total number of symmetries                 4 (point group: C2v)
@    Reference state symmetry                   1 (irrep name : A1 )

     Orbital specifications
     ======================
@    Abelian symmetry species          All |    1    2    3    4
@                                          |  A1   B1   B2   A2 
                                       --- |  ---  ---  ---  ---
@    Inactive orbitals                  27 |   15   10    2    0
@    Active orbitals                     7 |    1    1    2    3
@    Secondary orbitals                254 |   99   80   44   31
@    Total number of orbitals          288 |  115   91   48   34
@    Number of basis functions         288 |  115   91   48   34

      ** Automatic occupation of RHF orbitals **

      -- Initial occupation of symmetries is determined from extended Huckel guess.           
      -- Initial occupation of symmetries is :
@    Occupied SCF orbitals              32 |   16   11    3    2

     Optimization information
     ========================
@    Number of determinants                  56
@    Number of orbital rotations           2762
     ------------------------------------------
@    Total number of variables             2818

     Maximum number of macro iterations      40
     Maximum number of micro iterations     960
     Threshold for MCSCF gradient      1.00D-05
     Number of initial trial vectors          2
     Number of initial CI iterations          3
     Number of simultaneous trial vectors     2

@    This calculation converges to state no.   2 for the specified symmetry and spin species.

     Maximum number of NEO/NR iterations  24

    INFORMATION: Switched to "new" integral transformation (from 1988 ;-) )
    because more than 255 basis functions.


 ***********************************************
 ***** DIIS acceleration of SCF iterations *****
 ***********************************************

 C1-DIIS algorithm; max error vectors =    8

 Automatic occupation of symmetries with  64 electrons.

 Iter     Total energy    Error norm  Delta(E)    SCF occupation
 -----------------------------------------------------------------------------
   1  Screening settings (-IFTHRS, JTDIIS, DIFDEN, times)   -8    1    T  2.87D+01  2.87D+01
@  1  -432.276869848       6.44D+00  -4.32D+02    16  11   3   2
      Virial theorem: -V/T =      1.998614
@    MULPOP   C       0.31; C   _1  0.27; C   _2  0.27; C   _1  0.22; C   _2  0.22; C       0.35; N       1.32; O   _1 -1.01; O   _2 -1.01; H   _1 -0.20; 
@             H   _2 -0.20; H   _1 -0.18; H   _2 -0.18; H      -0.19; 
   1  Level shift: doubly occupied orbital energies shifted by -2.00D-01
 -----------------------------------------------------------------------------
   2  Screening settings (-IFTHRS, JTDIIS, DIFDEN, times)   -8    2    T  2.85D+01  2.86D+01
@  2  -433.848681580       2.87D+00  -1.57D+00    16  11   3   2
      Virial theorem: -V/T =      2.001351
@    MULPOP   C       0.75; C   _1  0.39; C   _2  0.39; C   _1  0.36; C   _2  0.36; C       0.39; N       0.38; O   _1 -0.51; O   _2 -0.51; H   _1 -0.41; 
@             H   _2 -0.41; H   _1 -0.39; H   _2 -0.39; H      -0.40; 
   2  Level shift: doubly occupied orbital energies shifted by -1.00D-01
 -----------------------------------------------------------------------------
   3  Screening settings (-IFTHRS, JTDIIS, DIFDEN, times)   -8    3    T  2.83D+01  2.83D+01
@  3  -434.198952751       7.06D-01  -3.50D-01    16  11   3   2
      Virial theorem: -V/T =      2.000851
@    MULPOP   C       1.46; C   _1  0.30; C   _2  0.30; C   _1  0.44; C   _2  0.44; C       0.31; N       0.72; O   _1 -0.86; O   _2 -0.86; H   _1 -0.46; 
@             H   _2 -0.46; H   _1 -0.44; H   _2 -0.44; H      -0.44; 
   3  Level shift: doubly occupied orbital energies shifted by -2.50D-02
 -----------------------------------------------------------------------------
   4  Screening settings (-IFTHRS, JTDIIS, DIFDEN, times)   -8    4    T  2.82D+01  2.83D+01
@  4  -434.223860570       1.81D-01  -2.49D-02    16  11   3   2
      Virial theorem: -V/T =      2.002571
@    MULPOP   C       1.56; C   _1  0.26; C   _2  0.26; C   _1  0.52; C   _2  0.52; C       0.27; N       0.57; O   _1 -0.83; O   _2 -0.83; H   _1 -0.46; 
@             H   _2 -0.46; H   _1 -0.46; H   _2 -0.46; H      -0.46; 
   4  Level shift: doubly occupied orbital energies shifted by -1.25D-02
 -----------------------------------------------------------------------------
   5  Screening settings (-IFTHRS, JTDIIS, DIFDEN, times)  -10    5    F  2.91D+01  2.91D+01
@  5  -434.226430353       5.46D-02  -2.57D-03    16  11   3   2
      Virial theorem: -V/T =      2.001999
@    MULPOP   C       1.59; C   _1  0.23; C   _2  0.23; C   _1  0.52; C   _2  0.52; C       0.24; N       0.57; O   _1 -0.84; O   _2 -0.84; H   _1 -0.45; 
@             H   _2 -0.45; H   _1 -0.44; H   _2 -0.44; H      -0.45; 
 -----------------------------------------------------------------------------
   6  Screening settings (-IFTHRS, JTDIIS, DIFDEN, times)  -10    6    T  2.84D+01  2.84D+01
@  6  -434.226771667       1.54D-02  -3.41D-04    16  11   3   2
      Virial theorem: -V/T =      2.001924
@    MULPOP   C       1.61; C   _1  0.22; C   _2  0.22; C   _1  0.52; C   _2  0.52; C       0.24; N       0.55; O   _1 -0.83; O   _2 -0.83; H   _1 -0.45; 
@             H   _2 -0.45; H   _1 -0.44; H   _2 -0.44; H      -0.44; 
 -----------------------------------------------------------------------------
   7  Screening settings (-IFTHRS, JTDIIS, DIFDEN, times)  -13    7    F  2.90D+01  2.90D+01
@  7  -434.226806580       6.49D-03  -3.49D-05    16  11   3   2
      Virial theorem: -V/T =      2.001958
@    MULPOP   C       1.62; C   _1  0.22; C   _2  0.22; C   _1  0.52; C   _2  0.52; C       0.24; N       0.55; O   _1 -0.83; O   _2 -0.83; H   _1 -0.45; 
@             H   _2 -0.45; H   _1 -0.44; H   _2 -0.44; H      -0.44; 
 -----------------------------------------------------------------------------
   8  Screening settings (-IFTHRS, JTDIIS, DIFDEN, times)  -13    8    T  2.88D+01  2.88D+01
@  8  -434.226812132       2.19D-03  -5.55D-06    16  11   3   2
      Virial theorem: -V/T =      2.001946
@    MULPOP   C       1.62; C   _1  0.22; C   _2  0.22; C   _1  0.52; C   _2  0.52; C       0.24; N       0.54; O   _1 -0.83; O   _2 -0.83; H   _1 -0.45; 
@             H   _2 -0.45; H   _1 -0.44; H   _2 -0.44; H      -0.44; 
 -----------------------------------------------------------------------------
   9  Screening settings (-IFTHRS, JTDIIS, DIFDEN, times)  -13    9    T  2.85D+01  2.86D+01
@  9  -434.226812720       6.61D-04  -5.88D-07    16  11   3   2
      Virial theorem: -V/T =      2.001943
@    MULPOP   C       1.62; C   _1  0.22; C   _2  0.22; C   _1  0.52; C   _2  0.52; C       0.24; N       0.54; O   _1 -0.83; O   _2 -0.83; H   _1 -0.45; 
@             H   _2 -0.45; H   _1 -0.44; H   _2 -0.44; H      -0.44; 
 -----------------------------------------------------------------------------
  10  Screening settings (-IFTHRS, JTDIIS, DIFDEN, times)  -13   10    T  2.89D+01  2.89D+01
@ 10  -434.226812770       1.99D-04  -5.01D-08    16  11   3   2
      Virial theorem: -V/T =      2.001944
@    MULPOP   C       1.62; C   _1  0.22; C   _2  0.22; C   _1  0.52; C   _2  0.52; C       0.24; N       0.54; O   _1 -0.83; O   _2 -0.83; H   _1 -0.45; 
@             H   _2 -0.45; H   _1 -0.44; H   _2 -0.44; H      -0.44; 
 -----------------------------------------------------------------------------
  11  Screening settings (-IFTHRS, JTDIIS, DIFDEN, times)  -13   11    T  2.85D+01  2.85D+01
@ 11  -434.226812776       7.13D-05  -6.20D-09    16  11   3   2
      Virial theorem: -V/T =      2.001944
@    MULPOP   C       1.62; C   _1  0.22; C   _2  0.22; C   _1  0.52; C   _2  0.52; C       0.24; N       0.54; O   _1 -0.83; O   _2 -0.83; H   _1 -0.45; 
@             H   _2 -0.45; H   _1 -0.44; H   _2 -0.44; H      -0.44; 
 -----------------------------------------------------------------------------
  12  Screening settings (-IFTHRS, JTDIIS, DIFDEN, times)  -13   12    T  2.84D+01  2.84D+01
@ 12  -434.226812777       2.74D-05  -8.16D-10    16  11   3   2
      Virial theorem: -V/T =      2.001944
@    MULPOP   C       1.62; C   _1  0.22; C   _2  0.22; C   _1  0.52; C   _2  0.52; C       0.24; N       0.54; O   _1 -0.83; O   _2 -0.83; H   _1 -0.45; 
@             H   _2 -0.45; H   _1 -0.44; H   _2 -0.44; H      -0.44; 
 -----------------------------------------------------------------------------
  13  Screening settings (-IFTHRS, JTDIIS, DIFDEN, times)  -13   13    T  2.83D+01  2.83D+01
@ 13  -434.226812777       1.50D-05  -1.08D-10    16  11   3   2
      Virial theorem: -V/T =      2.001944
@    MULPOP   C       1.62; C   _1  0.22; C   _2  0.22; C   _1  0.52; C   _2  0.52; C       0.24; N       0.54; O   _1 -0.83; O   _2 -0.83; H   _1 -0.45; 
@             H   _2 -0.45; H   _1 -0.44; H   _2 -0.44; H      -0.44; 
 -----------------------------------------------------------------------------
  14  Screening settings (-IFTHRS, JTDIIS, DIFDEN, times)  -13   14    T  2.84D+01  2.84D+01
@ 14  -434.226812777       4.25D-06  -3.41D-11    16  11   3   2
      Virial theorem: -V/T =      2.001944
@    MULPOP   C       1.62; C   _1  0.22; C   _2  0.22; C   _1  0.52; C   _2  0.52; C       0.24; N       0.54; O   _1 -0.83; O   _2 -0.83; H   _1 -0.45; 
@             H   _2 -0.45; H   _1 -0.44; H   _2 -0.44; H      -0.44; 
 -----------------------------------------------------------------------------
  15  Screening settings (-IFTHRS, JTDIIS, DIFDEN, times)  -13   15    T  2.84D+01  2.84D+01
@ 15  -434.226812777       2.06D-06  -8.98D-12    16  11   3   2
      Virial theorem: -V/T =      2.001944
@    MULPOP   C       1.62; C   _1  0.22; C   _2  0.22; C   _1  0.52; C   _2  0.52; C       0.24; N       0.54; O   _1 -0.83; O   _2 -0.83; H   _1 -0.45; 
@             H   _2 -0.45; H   _1 -0.44; H   _2 -0.44; H      -0.44; 
 -----------------------------------------------------------------------------
  16  Screening settings (-IFTHRS, JTDIIS, DIFDEN, times)  -13   16    T  2.84D+01  2.84D+01
@ 16  -434.226812777       1.06D-06  -9.78D-12    16  11   3   2
      Virial theorem: -V/T =      2.001944
@    MULPOP   C       1.62; C   _1  0.22; C   _2  0.22; C   _1  0.52; C   _2  0.52; C       0.24; N       0.54; O   _1 -0.83; O   _2 -0.83; H   _1 -0.45; 
@             H   _2 -0.45; H   _1 -0.44; H   _2 -0.44; H      -0.44; 
 -----------------------------------------------------------------------------
  17  Screening settings (-IFTHRS, JTDIIS, DIFDEN, times)  -13   17    T  2.83D+01  2.83D+01
@ 17  -434.226812777       5.15D-07   1.76D-11    16  11   3   2

@ *** DIIS converged in  17 iterations !
@     Converged SCF energy, gradient:   -434.226812777181    5.15D-07
    - total time used in SIRFCK :              0.00 seconds

 --- Writing SIRIFC interface file

 CPU and wall time for SCF :     485.906     486.093


 ----- Output from SIRIUS MP2 module -----

 Reference: H.J.Aa.Jensen, P.Jorgensen, H.Agren, and J.Olsen,
            J. Chem. Phys. 88, 3834 (1988); 89, 5354 (1988)

 Checking that the closed shell orbitals are canonical Hartree-Fock orbitals

    Number of electrons  :   64
    Closed shell orbitals:   16   11    3    2

 Generating Fock matrix

 Hartree-Fock electronic energy:        -848.034430503259
 Hartree-Fock total      energy:        -434.226812777190

 Hartree-Fock orbital energies, symmetry 1 ( A1 ),   16 occupied SCF orbitals

       -20.62479718   -15.86784527   -11.31131081   -11.27807491   -11.27675117
       -11.26966039    -1.61333432    -1.19580188    -1.08691043    -0.95938862
        -0.83598598    -0.78517786    -0.70485002    -0.64860474    -0.55124691
        -0.48774398     0.02813733     0.04465273     0.06239300     0.10517155
         0.13123450     0.13569195     0.15287992     0.15638103     0.17319782
         0.17866444     0.21796681     0.25914445     0.28483697     0.30396174
         0.30816912     0.34077113     0.35367058     0.35751732     0.36918065
         0.39400831     0.41207039     0.44124295     0.46279000     0.48782034
         0.49395950     0.55920020     0.57203900     0.59020429     0.63182375
         0.65457331     0.66238228     0.68158332     0.71761599     0.73228317
         0.74547416     0.83814196     0.87704671     0.92517027     0.96332706
         0.96775923     1.01142574     1.04994066     1.08377683     1.14246732
         1.28624546     1.36806871     1.37888634     1.43872882     1.48749959
         1.52416765     1.55569054     1.57346755     1.60728392     1.62980764
         1.67652942     1.72895835     1.74701006     1.76343163     1.86201881
         1.94410348     1.96237031     2.00384085     2.02179145     2.11463082
         2.12866988     2.23806552     2.33137552     2.35367483     2.42495097
         2.45560985     2.56886314     2.71329653     2.77992573     2.85644786
         2.88385497     2.99367827     3.04326266     3.16866795     3.28135962
         3.42920549     3.78012610     3.89571360     4.09709783     4.30073852
        19.80105894    20.34474795    20.45988565    20.62635111    23.35718414
        23.36264064    23.43294207    23.81913654    23.91749815    24.12830435
        27.11056061    31.22322100    35.80736755    39.67896066    39.97787398

 Hartree-Fock orbital energies, symmetry 2 ( B1 ),   11 occupied SCF orbitals

       -20.62484074   -11.27811393   -11.26977181    -1.42654962    -1.05094373
        -0.86319130    -0.74070755    -0.65626283    -0.62290534    -0.52801897
        -0.51159085     0.03707518     0.05994783     0.13105095     0.13472798
         0.15468296     0.17333524     0.18459960     0.21483037     0.26198835
         0.29038020     0.31534336     0.33356136     0.36541722     0.37272492
         0.39605318     0.42405109     0.43921130     0.48736563     0.57129002
         0.58528051     0.59842826     0.65273901     0.67698689     0.68514836
         0.71147988     0.75387437     0.76386048     0.83226352     0.84378933
         0.86987158     0.94300063     1.01436720     1.14158468     1.20904434
         1.25489422     1.30117834     1.41515955     1.43685283     1.48993381
         1.55782402     1.59051029     1.59901004     1.64099136     1.72110887
         1.76532728     1.77587106     1.79659806     1.89622898     1.93676931
         1.99648464     2.09402672     2.22757273     2.24973166     2.33265903
         2.35172956     2.39390730     2.54370419     2.57412628     2.77612317
         2.90137046     2.92756844     3.07569496     3.26766065     3.32676053
         3.41474902     3.76023797     3.85489836     4.23774909    20.31549009
        20.49495423    22.92362285    23.35095979    23.40578640    23.94379530
        24.12683991    24.31444825    31.45845072    35.52721439    39.63668237
        39.94914176

 Hartree-Fock orbital energies, symmetry 3 ( B2 ),    3 occupied SCF orbitals

        -0.72534542    -0.53257895    -0.37267382     0.03715850     0.10908196
         0.12611510     0.14109648     0.18541854     0.19428302     0.24096183
         0.32494608     0.34577473     0.36953309     0.44666152     0.53539699
         0.59092711     0.64691956     0.71451046     0.79032446     0.83476028
         0.87685274     0.92538324     0.93082762     0.98525852     1.15071950
         1.28897703     1.32493900     1.47272333     1.47351565     1.62202191
         1.67522708     1.71203377     1.85015140     1.89485784     1.96271604
         2.08649647     2.18405027     2.29654488     2.53394323     2.68054797
         3.68054174     3.75339536    22.54976661    22.69615577    22.83363804
        23.03180806    30.54970900    39.41199670

 Hartree-Fock orbital energies, symmetry 4 ( A2 ),    2 occupied SCF orbitals

        -0.46943152    -0.36517915     0.08959991     0.13315860     0.18741656
         0.29611143     0.41585891     0.49258759     0.55336460     0.66806620
         0.73939885     0.89846293     0.90699138     0.94957321     1.02835478
         1.10121677     1.21457609     1.23172894     1.32580352     1.49817984
         1.67802488     1.69317081     1.86619663     2.03442680     2.12317127
         2.22146261     2.36047128     2.45987660     2.61158652     3.66355224
         4.01828983    22.69741856    22.86470141    39.50770295

    E(LUMO) :     0.02813733   (in symmetry 1)
  - E(HOMO) :    -0.36517915   (in symmetry 4)
  --------------------------
    gap     :     0.39331648

---> (Re)generating AOTWOINT


     ************************************************************************
     ************************** Output from HERINT **************************
     ************************************************************************


 Threshold for neglecting two-electron integrals:  1.00D-12
 HERMIT - Number of two-electron integrals written:   204193794 ( 23.6% )
 HERMIT - Megabytes written:                           3117.048

  Time used in TWOINT     is      39.50 seconds

 2-el. integral transformation level 5: Total CPU and WALL times (sec)     414.828     416.497

 MP2 move   0.996050 electrons to unoccupied HF orbitals


@   Hartree-Fock total energy   :          -434.2268127772
@   + MP2 contribution          :            -1.7281240540
@   = MP2 second order energy   :          -435.9549368312

 Natural orbital occupation numbers, symmetry 1 (irrep A1 )
 Sum =    32.00897012; RHF =    32.00000000; Difference =     0.00897012

         1.99928979     1.99907543     1.99876141     1.99875650     1.99875181
         1.99874782     1.98681289     1.98408816     1.97938143     1.97231150
         1.96890824     1.96826715     1.96492453     1.96204963     1.95511346
         1.94563514     0.04541658     0.03581195     0.02561804     0.02384870
         0.01918319     0.01846986     0.01740571     0.01652377     0.01383114
         0.01265997     0.01144253     0.00983981     0.00855137     0.00792057
         0.00720525     0.00667737     0.00555708     0.00454031     0.00306631
         0.00294100     0.00266712     0.00258880     0.00220367     0.00202523
         0.00184608     0.00167485     0.00162971     0.00131898     0.00121795
         0.00116262     0.00106047     0.00096492     0.00072084     0.00065479
         0.00061407     0.00053031     0.00050165     0.00047260     0.00043813
         0.00041838     0.00039598     0.00038817     0.00037588     0.00034834
         0.00033852     0.00032189     0.00030767     0.00028529     0.00026599
         0.00025998     0.00022496     0.00020804     0.00020345     0.00019605
         0.00018651     0.00018599     0.00017629     0.00016995     0.00016712
         0.00016090     0.00015594     0.00014852     0.00014061     0.00013357
         0.00012613     0.00012240     0.00012124     0.00011075     0.00010496
         0.00009338     0.00007842     0.00007151     0.00005732     0.00005306
         0.00005005     0.00003668     0.00003417     0.00002894     0.00001927
         0.00001827     0.00001456     0.00001344     0.00001160     0.00000943
         0.00000891     0.00000852     0.00000700     0.00000303     0.00000276
         0.00000195     0.00000096     0.00000057     0.00000037     0.00000018
         0.00000017     0.00000002    -0.00000009    -0.00000054    -0.00008142

 Natural orbital occupation numbers, symmetry 2 (irrep B1 )
 Sum =    21.95235525; RHF =    22.00000000; Difference =    -0.04764475

         1.99928969     1.99875713     1.99875071     1.98436284     1.98000522
         1.97272029     1.96295272     1.96066291     1.95475233     1.95418134
         1.94539918     0.03678901     0.02544510     0.02383215     0.01885843
         0.01662421     0.01598263     0.01528496     0.01131054     0.01054827
         0.00914351     0.00774346     0.00587928     0.00540879     0.00512449
         0.00421993     0.00313902     0.00268230     0.00237549     0.00213193
         0.00169798     0.00162694     0.00151762     0.00132360     0.00118595
         0.00102017     0.00096900     0.00070214     0.00064379     0.00057292
         0.00049867     0.00044162     0.00042487     0.00037484     0.00035413
         0.00034245     0.00031712     0.00029524     0.00027127     0.00025703
         0.00023853     0.00021152     0.00019859     0.00018729     0.00018272
         0.00017856     0.00017110     0.00016950     0.00016030     0.00015348
         0.00014499     0.00013379     0.00012837     0.00012672     0.00011930
         0.00011279     0.00009449     0.00008831     0.00006683     0.00005876
         0.00004665     0.00003834     0.00003122     0.00002956     0.00002458
         0.00001543     0.00001400     0.00001154     0.00001048     0.00000897
         0.00000475     0.00000353     0.00000188     0.00000120     0.00000056
         0.00000026     0.00000014    -0.00000006    -0.00000017    -0.00000067
        -0.00000808

 Natural orbital occupation numbers, symmetry 3 (irrep B2 )
 Sum =     6.07716805; RHF =     6.00000000; Difference =     0.07716805

         1.95085827     1.94436676     1.90883735     0.10093301     0.06758193
         0.02966434     0.01056851     0.01036177     0.00876142     0.00784262
         0.00612768     0.00523644     0.00445324     0.00383987     0.00342985
         0.00309602     0.00155076     0.00145599     0.00100271     0.00090010
         0.00087221     0.00066610     0.00059142     0.00049117     0.00047473
         0.00041962     0.00033483     0.00029209     0.00024614     0.00022762
         0.00019586     0.00019576     0.00018990     0.00017465     0.00015531
         0.00012952     0.00012064     0.00011290     0.00010130     0.00008393
         0.00008136     0.00006231     0.00003607     0.00001984     0.00001059
         0.00000701     0.00000535     0.00000119

 Natural orbital occupation numbers, symmetry 4 (irrep A2 )
 Sum =     3.96150658; RHF =     4.00000000; Difference =    -0.03849342

         1.91632702     1.90855320     0.06682219     0.01449432     0.01045281
         0.00928172     0.00795521     0.00572562     0.00524508     0.00408278
         0.00356764     0.00152175     0.00116718     0.00093874     0.00078235
         0.00073105     0.00067837     0.00056718     0.00040986     0.00037227
         0.00033962     0.00030237     0.00021565     0.00019708     0.00016394
         0.00013447     0.00011648     0.00010233     0.00009356     0.00006944
         0.00005062     0.00002085     0.00001801     0.00000583

 Time used for MP2 natural orbitals :     447.172 CPU seconds,     448.835 wall seconds.

 CPU and wall time for MP2 :     447.172     448.835


        SIRIUS MCSCF optimization (SIROPT)
 ================================================


 Fock matrix screening setting for SIRCNO: IFTHRS =    9


 ----- Output from SIRIUS CI module (CICTL) -----




 2-el. integral transformation level 0: Total CPU and WALL times (sec)     100.828     100.846


 --- SIRCI.CIST1: plus combination of all degenerate
                 configurations is used as start vectors.


 (CIST1) 18 lowest diagonal elements:

 Element no. Config.no.    Active energy      Total energy

         1 :          1    -17.1289452633   -433.9937080083
         2 :         22    -17.0260166115   -433.8907793565
         3 :         28    -16.8612138855   -433.7259766305
         4 :          6    -16.8444208044   -433.7091835493
         5 :          5    -16.8387054485   -433.7034681934
         6 :          3    -16.8180101480   -433.6827728930
         7 :          2    -16.7621024555   -433.6268652005
         8 :         24    -16.7510419190   -433.6158046639
         9 :         23    -16.7433701109   -433.6081328559
        10 :          7    -16.7347466077   -433.5995093526
        11 :         25    -16.7185339191   -433.5832966641
        12 :         19    -16.6596842960   -433.5244470410
        13 :         29    -16.5640107340   -433.4287734789
        14 :         12    -16.5530353179   -433.4177980629
        15 :         11    -16.5351474982   -433.3999102431
        16 :         27    -16.4290025757   -433.2937653206
        17 :         26    -16.4214144338   -433.2861771787
        18 :         13    -16.4117104274   -433.2764731723


 Convergence threshold for CI optimization :     0.00000500



 *** Reached maximum number of CI iterations:    3
              2 CI roots are not converged.


@ Final CI energies and residuals in symmetry 1 (irrep A1 )
@    1     -434.029573218471512       9.10D-03
@    2     -433.905751918786848       5.01D-03
@    3     -433.800850787919501       4.46D-02
@    4     -433.715697382589781       7.57D-02
@    5     -433.683787868218417       8.04D-02
@    6     -433.641581068503911       1.02D-01

   --- OUTPUT FROM SIRCNO     Keyword = FD+NO 


 Occupations of CAS natural orbitals:

 Symmetry  1 ( irrep A1  in C2v )

   1.999992758

 Symmetry  2 ( irrep B1  in C2v )

   1.999998561

 Symmetry  3 ( irrep B2  in C2v )

   1.007289151   0.993073637

 Symmetry  4 ( irrep A2  in C2v )

   1.994071604   1.964027552   0.041546737


 --- MACRO ITERATION  1 ---
 --------------------------

 2-el. integral transformation level 3: Total CPU and WALL times (sec)     102.188     102.254

 Fock matrix screening setting for this macro iteration: 10^( -9)

 Total MCSCF energy       :          -433.905751919834415  (MACRO    1)

 - Nuclear repulsion      :           413.807617726068599
 - Inactive energy        :          -830.672380470917574
 - Active energy          :           -17.040989174985427

 Norm of total gradient   :             1.335856882242
 -    of CI gradient      :             0.010021367487
 -    of orbital gradient :             1.335819292429
      Virial theorem: -V/T =      1.995138
@    MULPOP   C       1.62; C   _1  0.42; C   _2  0.42; C   _1  0.54; C   _2  0.54; C       0.58; N       0.12; O   _1 -0.92; O   _2 -0.92; H   _1 -0.50; 
@             H   _2 -0.50; H   _1 -0.47; H   _2 -0.47; H      -0.47; 

 (SIRNEO) iteration (  1,  4)
 Micro iteration termination criterion met, EVAL(ISTATE+1) = -1.06D-01

   --- OUTPUT FROM SIRCNO     Keyword = FD+NO 


 Occupations of CAS natural orbitals:

 Symmetry  1 ( irrep A1  in C2v )

   1.999956727

 Symmetry  2 ( irrep B1  in C2v )

   1.999954053

 Symmetry  3 ( irrep B2  in C2v )

   1.167681904   0.845576441

 Symmetry  4 ( irrep A2  in C2v )

   1.982942034   1.808924076   0.194964767


 --- MACRO ITERATION  2 ---
 --------------------------

 2-el. integral transformation level 3: Total CPU and WALL times (sec)     103.375     103.396

 Fock matrix screening setting for this macro iteration: 10^( -9)

 Total MCSCF energy       :          -433.993075084317354  (MACRO    2)

 - Nuclear repulsion      :           413.807617726068599
 - Inactive energy        :          -830.694157504655323
 - Active energy          :           -17.106535305730635

 Norm of total gradient   :             0.898237268287
 -    of CI gradient      :             0.087527133662
 -    of orbital gradient :             0.893962634013
      Virial theorem: -V/T =      1.997234
@    MULPOP   C       1.44; C   _1  0.38; C   _2  0.38; C   _1  0.55; C   _2  0.55; C       0.44; N       0.33; O   _1 -0.81; O   _2 -0.81; H   _1 -0.51; 
@             H   _2 -0.51; H   _1 -0.46; H   _2 -0.46; H      -0.51; 

 Residual norm when dim(red L) =  13
 NEO root     CSF        orbital          total
    2     0.06944376     0.04707145     0.08389372 converged

 (NEONEX) NEO vector is converged.

   --- OUTPUT FROM SIRCNO     Keyword = FD+NO 


 Occupations of CAS natural orbitals:

 Symmetry  1 ( irrep A1  in C2v )

   1.999923317

 Symmetry  2 ( irrep B1  in C2v )

   1.999931447

 Symmetry  3 ( irrep B2  in C2v )

   1.349796777   0.675885553

 Symmetry  4 ( irrep A2  in C2v )

   1.969634011   1.633131732   0.371697162


 --- MACRO ITERATION  3 ---
 --------------------------

 2-el. integral transformation level 3: Total CPU and WALL times (sec)     102.562     102.606

 Fock matrix screening setting for this macro iteration: 10^( -9)

 Total MCSCF energy       :          -434.054163809596162  (MACRO    3)

 - Nuclear repulsion      :           413.807617726068599
 - Inactive energy        :          -830.266918881821425
 - Active energy          :           -17.594862653843318

 Norm of total gradient   :             0.233024512181
 -    of CI gradient      :             0.067833803003
 -    of orbital gradient :             0.222932721796
      Virial theorem: -V/T =      2.001175
@    MULPOP   C       1.68; C   _1  0.24; C   _2  0.24; C   _1  0.53; C   _2  0.53; C       0.21; N       0.59; O   _1 -0.96; O   _2 -0.96; H   _1 -0.44; 
@             H   _2 -0.44; H   _1 -0.42; H   _2 -0.42; H      -0.40; 

 Residual norm when dim(red L) =   9
 NEO root     CSF        orbital          total
    1     0.01859386     0.08481792     0.08683208 converged

 (NEONEX) NEO auxiliary root no.  1 is converged.

 Residual norm when dim(red L) =  14
 NEO root     CSF        orbital          total
    2     0.02288485     0.01128795     0.02551733 converged

 (NEONEX) NEO vector is converged.

   --- OUTPUT FROM SIRCNO     Keyword = FD+NO 


 Occupations of CAS natural orbitals:

 Symmetry  1 ( irrep A1  in C2v )

   1.999739273

 Symmetry  2 ( irrep B1  in C2v )

   1.999892958

 Symmetry  3 ( irrep B2  in C2v )

   1.494448380   0.536693713

 Symmetry  4 ( irrep A2  in C2v )

   1.967856827   1.464871774   0.536497075


 --- MACRO ITERATION  4 ---
 --------------------------

 2-el. integral transformation level 3: Total CPU and WALL times (sec)     103.281     103.292

 Fock matrix screening setting for this macro iteration: 10^( -9)

 Total MCSCF energy       :          -434.061294490222451  (MACRO    4)

 - Nuclear repulsion      :           413.807617726068599
 - Inactive energy        :          -828.308478508014787
 - Active energy          :           -19.560433708276289

 Norm of total gradient   :             0.225693436946
 -    of CI gradient      :             0.046559608101
 -    of orbital gradient :             0.220838697637
      Virial theorem: -V/T =      2.000756
@    MULPOP   C       1.74; C   _1  0.21; C   _2  0.21; C   _1  0.52; C   _2  0.52; C       0.29; N       0.50; O   _1 -0.90; O   _2 -0.90; H   _1 -0.44; 
@             H   _2 -0.44; H   _1 -0.44; H   _2 -0.44; H      -0.42; 

 (SIRNEO) iteration (  4,  4)
 Micro iteration termination criterion met, EVAL(ISTATE+1) = -1.45D-03

   --- OUTPUT FROM SIRCNO     Keyword = FD+NO 


 Occupations of CAS natural orbitals:

 Symmetry  1 ( irrep A1  in C2v )

   1.997258482

 Symmetry  2 ( irrep B1  in C2v )

   1.999931260

 Symmetry  3 ( irrep B2  in C2v )

   1.520676412   0.512584429

 Symmetry  4 ( irrep A2  in C2v )

   1.968109858   1.438528188   0.562911371


 --- MACRO ITERATION  5 ---
 --------------------------

 2-el. integral transformation level 3: Total CPU and WALL times (sec)     102.688     102.750

 Fock matrix screening setting for this macro iteration: 10^( -9)

 Total MCSCF energy       :          -434.058733224418745  (MACRO    5)

 - Nuclear repulsion      :           413.807617726068599
 - Inactive energy        :          -828.141919458626717
 - Active energy          :           -19.724431491860628

 Norm of total gradient   :             0.241878526382
 -    of CI gradient      :             0.186641989279
 -    of orbital gradient :             0.153850542289
      Virial theorem: -V/T =      2.000648
@    MULPOP   C       1.82; C   _1  0.18; C   _2  0.18; C   _1  0.55; C   _2  0.55; C       0.24; N       0.49; O   _1 -0.90; O   _2 -0.90; H   _1 -0.44; 
@             H   _2 -0.44; H   _1 -0.44; H   _2 -0.44; H      -0.43; 

 (SIRSTP) Energy difference;
 actual, predicted and ratio:   0.002561265803706  -0.003077899274267   -0.832147

 (SIRSTP) step is too large -- backstep

   --- OUTPUT FROM SIRCNO     Keyword = FD+NO 


 Occupations of CAS natural orbitals:

 Symmetry  1 ( irrep A1  in C2v )

   1.998594902

 Symmetry  2 ( irrep B1  in C2v )

   1.999918479

 Symmetry  3 ( irrep B2  in C2v )

   1.525600092   0.507791265

 Symmetry  4 ( irrep A2  in C2v )

   1.966673142   1.434033806   0.567388313


 Optimization control: Step was too large, we backstep


 --- MACRO ITERATION  5 BACKSTEP NO.  1 ---

 2-el. integral transformation level 3: Total CPU and WALL times (sec)     102.016     102.026

 Fock matrix screening setting for this macro iteration: 10^( -9)

 Total MCSCF energy       :          -434.061901690854143  (MACRO    5)

 - Nuclear repulsion      :           413.807617726068599
 - Inactive energy        :          -829.579395330415082
 - Active energy          :           -18.290124086507632

 Norm of total gradient   :             0.077073640699
 -    of CI gradient      :             0.053431758910
 -    of orbital gradient :             0.055546316083
      Virial theorem: -V/T =      2.000692
@    MULPOP   C       1.78; C   _1  0.20; C   _2  0.20; C   _1  0.52; C   _2  0.52; C       0.27; N       0.50; O   _1 -0.90; O   _2 -0.90; H   _1 -0.44; 
@             H   _2 -0.44; H   _1 -0.44; H   _2 -0.44; H      -0.43; 

 (SIRSTP) Energy difference;
 actual, predicted and ratio:  -0.000607200631691  -0.001948910886395    0.311559

 (SIRSTP) step is too large -- backstep

   --- OUTPUT FROM SIRCNO     Keyword = FD+NO 


 Occupations of CAS natural orbitals:

 Symmetry  1 ( irrep A1  in C2v )

   1.999154992

 Symmetry  2 ( irrep B1  in C2v )

   1.999906687

 Symmetry  3 ( irrep B2  in C2v )

   1.528782840   0.504913702

 Symmetry  4 ( irrep A2  in C2v )

   1.965814571   1.431107922   0.570319286


 Optimization control: Step was too large, we backstep


 --- MACRO ITERATION  5 BACKSTEP NO.  2 ---

 2-el. integral transformation level 3: Total CPU and WALL times (sec)     103.328     103.389

 Fock matrix screening setting for this macro iteration: 10^( -9)

 Total MCSCF energy       :          -434.062312443161659  (MACRO    5)

 - Nuclear repulsion      :           413.807617726068599
 - Inactive energy        :          -829.865959768084167
 - Active energy          :           -18.003970401146070

 Norm of total gradient   :             0.039247412159
 -    of CI gradient      :             0.031148489884
 -    of orbital gradient :             0.023877414833
      Virial theorem: -V/T =      2.000712
@    MULPOP   C       1.76; C   _1  0.22; C   _2  0.22; C   _1  0.50; C   _2  0.50; C       0.29; N       0.50; O   _1 -0.90; O   _2 -0.90; H   _1 -0.44; 
@             H   _2 -0.44; H   _1 -0.44; H   _2 -0.44; H      -0.43; 

 Residual norm when dim(red L) =   8
 NEO root     CSF        orbital          total
    1     0.03963701     0.08901673     0.09744265 converged

 (NEONEX) NEO auxiliary root no.  1 is converged.

 Residual norm when dim(red L) =  17
 NEO root     CSF        orbital          total
    2     0.00405951     0.00182529     0.00445099 converged

 (NEONEX) NEO vector is converged.

   --- OUTPUT FROM SIRCNO     Keyword = FD+NO 


 Occupations of CAS natural orbitals:

 Symmetry  1 ( irrep A1  in C2v )

   1.999530587

 Symmetry  2 ( irrep B1  in C2v )

   1.999945442

 Symmetry  3 ( irrep B2  in C2v )

   1.553644995   0.471883266

 Symmetry  4 ( irrep A2  in C2v )

   1.973784076   1.388343790   0.612867844


 --- MACRO ITERATION  6 ---
 --------------------------

 2-el. integral transformation level 3: Total CPU and WALL times (sec)     102.266     102.295

 Fock matrix screening setting for this macro iteration: 10^( -9)

 Total MCSCF energy       :          -434.063107808733548  (MACRO    6)

 - Nuclear repulsion      :           413.807617726068599
 - Inactive energy        :          -829.490395237445910
 - Active energy          :           -18.380330297356252

 Norm of total gradient   :             0.008854768214
 -    of CI gradient      :             0.007473303076
 -    of orbital gradient :             0.004749385356
      Virial theorem: -V/T =      2.000716
@    MULPOP   C       1.76; C   _1  0.20; C   _2  0.20; C   _1  0.50; C   _2  0.50; C       0.30; N       0.52; O   _1 -0.89; O   _2 -0.89; H   _1 -0.45; 
@             H   _2 -0.45; H   _1 -0.44; H   _2 -0.44; H      -0.43; 

 Residual norm when dim(red L) =   8
 NEO root     CSF        orbital          total
    1     0.03015505     0.07371203     0.07964164 converged

 (NEONEX) NEO auxiliary root no.  1 is converged.

 Residual norm when dim(red L) =  25
 NEO root     CSF        orbital          total
    2     0.00133308     0.00053813     0.00143760 converged

 (NEONEX) NEO vector is converged.

   --- OUTPUT FROM SIRCNO     Keyword = FD+NO 


 Occupations of CAS natural orbitals:

 Symmetry  1 ( irrep A1  in C2v )

   1.999331787

 Symmetry  2 ( irrep B1  in C2v )

   1.999918283

 Symmetry  3 ( irrep B2  in C2v )

   1.576587095   0.440505711

 Symmetry  4 ( irrep A2  in C2v )

   1.982925142   1.348452326   0.652279655


 --- MACRO ITERATION  7 ---
 --------------------------

 2-el. integral transformation level 3: Total CPU and WALL times (sec)     102.641     102.691

 Fock matrix screening setting for this macro iteration: 10^( -9)

 Total MCSCF energy       :          -434.063453515639310  (MACRO    7)

 - Nuclear repulsion      :           413.807617726068599
 - Inactive energy        :          -829.556998339199708
 - Active energy          :           -18.314072902508226

 Norm of total gradient   :             0.008814022119
 -    of CI gradient      :             0.005403431860
 -    of orbital gradient :             0.006963469684
      Virial theorem: -V/T =      2.000729
@    MULPOP   C       1.76; C   _1  0.20; C   _2  0.20; C   _1  0.49; C   _2  0.49; C       0.30; N       0.53; O   _1 -0.88; O   _2 -0.88; H   _1 -0.45; 
@             H   _2 -0.45; H   _1 -0.44; H   _2 -0.44; H      -0.43; 

 Residual norm when dim(red L) =   8
 NEO root     CSF        orbital          total
    1     0.05143791     0.06391201     0.08204025 converged

 (NEONEX) NEO auxiliary root no.  1 is converged.

 (SIRNEO) iteration (  7, 18)
 Micro iteration termination criterion met, EVAL(ISTATE+1) = -1.24D-05

   --- OUTPUT FROM SIRCNO     Keyword = FD+NO 


 Occupations of CAS natural orbitals:

 Symmetry  1 ( irrep A1  in C2v )

   1.999719816

 Symmetry  2 ( irrep B1  in C2v )

   1.999998312

 Symmetry  3 ( irrep B2  in C2v )

   1.602552668   0.398151830

 Symmetry  4 ( irrep A2  in C2v )

   1.999506531   1.241915243   0.758155599


 --- MACRO ITERATION  8 ---
 --------------------------

 2-el. integral transformation level 3: Total CPU and WALL times (sec)     102.656     102.778

 Fock matrix screening setting for this macro iteration: 10^( -9)

 Total MCSCF energy       :          -434.064281688275969  (MACRO    8)

 - Nuclear repulsion      :           413.807617726068599
 - Inactive energy        :          -829.386515693688921
 - Active energy          :           -18.485383720655655

 Norm of total gradient   :             0.070213358868
 -    of CI gradient      :             0.053263787826
 -    of orbital gradient :             0.045748056461
      Virial theorem: -V/T =      2.000594
@    MULPOP   C       1.75; C   _1  0.20; C   _2  0.20; C   _1  0.47; C   _2  0.47; C       0.33; N       0.54; O   _1 -0.85; O   _2 -0.85; H   _1 -0.46; 
@             H   _2 -0.46; H   _1 -0.44; H   _2 -0.44; H      -0.44; 

 (SIRSTP) Energy difference;
[...]
      ----------------------------------------------------------------
         1    4.60865D+01  3.80D+01  2.61D+01  1.01D+03    1.16800D-01

 ** RSPCTL MICROITERATION NUMBER   11

 *** INFO, negative eigenvalues in reduced matrix. Symmetry  1,  triplet       F Dimension of reduced matrix =    24

 GP * SOLUTION vector at frequency     0.11680 a.u.
 after   12 linear transformations is      1.08384555D+04
 INERTIA (POS,ZER,NEG) of reduced matrix is   22    0    2
 Determinant of reduced matrix is  4.68 * 10 **-21.0

       No.  Residual tot.,    conf., and orb.    Bnorm      Frequency 
      ----------------------------------------------------------------
         1    8.84839D+01  2.26D+01  8.55D+01  1.46D+03    1.16800D-01

 ** RSPCTL MICROITERATION NUMBER   12

 *** INFO, negative eigenvalues in reduced matrix. Symmetry  1,  triplet       F Dimension of reduced matrix =    26

 GP * SOLUTION vector at frequency     0.11680 a.u.
 after   13 linear transformations is      1.28688603D+04
 INERTIA (POS,ZER,NEG) of reduced matrix is   24    0    2
 Determinant of reduced matrix is  7.49 * 10 **-23.0

       No.  Residual tot.,    conf., and orb.    Bnorm      Frequency 
      ----------------------------------------------------------------
         1    2.00953D+01  1.33D+01  1.51D+01  4.88D+02    1.16800D-01

 ** RSPCTL MICROITERATION NUMBER   13

 *** INFO, negative eigenvalues in reduced matrix. Symmetry  1,  triplet       F Dimension of reduced matrix =    28

 GP * SOLUTION vector at frequency     0.11680 a.u.
 after   14 linear transformations is      1.29836425D+04
 INERTIA (POS,ZER,NEG) of reduced matrix is   26    0    2
 Determinant of reduced matrix is  3.03 * 10 **-25.0

       No.  Residual tot.,    conf., and orb.    Bnorm      Frequency 
      ----------------------------------------------------------------
         1    1.42291D+01  1.34D+01  4.80D+00  4.75D+02    1.16800D-01

 ** RSPCTL MICROITERATION NUMBER   14

 *** INFO, negative eigenvalues in reduced matrix. Symmetry  1,  triplet       F Dimension of reduced matrix =    30

 GP * SOLUTION vector at frequency     0.11680 a.u.
 after   15 linear transformations is      1.32850257D+04
 INERTIA (POS,ZER,NEG) of reduced matrix is   28    0    2
 Determinant of reduced matrix is  9.03 * 10 **-26.0

       No.  Residual tot.,    conf., and orb.    Bnorm      Frequency 
      ----------------------------------------------------------------
         1    8.42491D+00  3.37D+00  7.72D+00  5.10D+02    1.16800D-01

 ** RSPCTL MICROITERATION NUMBER   15

 *** INFO, negative eigenvalues in reduced matrix. Symmetry  1,  triplet       F Dimension of reduced matrix =    32

 GP * SOLUTION vector at frequency     0.11680 a.u.
 after   16 linear transformations is      1.33214407D+04
 INERTIA (POS,ZER,NEG) of reduced matrix is   30    0    2
 Determinant of reduced matrix is  3.85 * 10 **-29.0

       No.  Residual tot.,    conf., and orb.    Bnorm      Frequency 
      ----------------------------------------------------------------
         1    5.50675D+00  3.77D+00  4.01D+00  5.13D+02    1.16800D-01

 ** RSPCTL MICROITERATION NUMBER   16

 *** INFO, negative eigenvalues in reduced matrix. Symmetry  1,  triplet       F Dimension of reduced matrix =    34

 GP * SOLUTION vector at frequency     0.11680 a.u.
 after   17 linear transformations is      1.33293484D+04
 INERTIA (POS,ZER,NEG) of reduced matrix is   32    0    2
 Determinant of reduced matrix is  3.04 * 10 **-31.0

       No.  Residual tot.,    conf., and orb.    Bnorm      Frequency 
      ----------------------------------------------------------------
         1    4.20082D+00  3.96D+00  1.40D+00  5.15D+02    1.16800D-01

 ** RSPCTL MICROITERATION NUMBER   17

 *** INFO, negative eigenvalues in reduced matrix. Symmetry  1,  triplet       F Dimension of reduced matrix =    36

 GP * SOLUTION vector at frequency     0.11680 a.u.
 after   18 linear transformations is      1.33811324D+04
 INERTIA (POS,ZER,NEG) of reduced matrix is   34    0    2
 Determinant of reduced matrix is  3.25 * 10 **-32.0

       No.  Residual tot.,    conf., and orb.    Bnorm      Frequency 
      ----------------------------------------------------------------
         1    3.36071D+00  1.39D+00  3.06D+00  5.26D+02    1.16800D-01

 ** RSPCTL MICROITERATION NUMBER   18

 *** INFO, negative eigenvalues in reduced matrix. Symmetry  1,  triplet       F Dimension of reduced matrix =    38

 GP * SOLUTION vector at frequency     0.11680 a.u.
 after   19 linear transformations is      1.33870042D+04
 INERTIA (POS,ZER,NEG) of reduced matrix is   36    0    2
 Determinant of reduced matrix is  3.87 * 10 **-35.0

       No.  Residual tot.,    conf., and orb.    Bnorm      Frequency 
      ----------------------------------------------------------------
         1    2.14041D+00  1.71D+00  1.29D+00  5.28D+02    1.16800D-01

 ** RSPCTL MICROITERATION NUMBER   19

 *** INFO, negative eigenvalues in reduced matrix. Symmetry  1,  triplet       F Dimension of reduced matrix =    40

 GP * SOLUTION vector at frequency     0.11680 a.u.
 after   20 linear transformations is      1.33896811D+04
 INERTIA (POS,ZER,NEG) of reduced matrix is   38    0    2
 Determinant of reduced matrix is  1.74 * 10 **-35.0

       No.  Residual tot.,    conf., and orb.    Bnorm      Frequency 
      ----------------------------------------------------------------
         1    1.58320D+00  4.26D-01  1.52D+00  5.29D+02    1.16800D-01

 ** RSPCTL MICROITERATION NUMBER   20

 *** INFO, negative eigenvalues in reduced matrix. Symmetry  1,  triplet       F Dimension of reduced matrix =    42

 GP * SOLUTION vector at frequency     0.11680 a.u.
 after   21 linear transformations is      1.33918720D+04
 INERTIA (POS,ZER,NEG) of reduced matrix is   40    0    2
 Determinant of reduced matrix is  2.73 * 10 **-39.0

       No.  Residual tot.,    conf., and orb.    Bnorm      Frequency 
      ----------------------------------------------------------------
         1    1.15139D+00  6.34D-01  9.61D-01  5.34D+02    1.16800D-01

 ** RSPCTL MICROITERATION NUMBER   21

 *** INFO, negative eigenvalues in reduced matrix. Symmetry  1,  triplet       F Dimension of reduced matrix =    44

 GP * SOLUTION vector at frequency     0.11680 a.u.
 after   22 linear transformations is      1.33924064D+04
 INERTIA (POS,ZER,NEG) of reduced matrix is   42    0    2
 Determinant of reduced matrix is  1.06 * 10 **-42.0

       No.  Residual tot.,    conf., and orb.    Bnorm      Frequency 
      ----------------------------------------------------------------
         1    8.84513D-01  7.84D-01  4.09D-01  5.38D+02    1.16800D-01

 ** RSPCTL MICROITERATION NUMBER   22

 *** INFO, negative eigenvalues in reduced matrix. Symmetry  1,  triplet       F Dimension of reduced matrix =    46

 GP * SOLUTION vector at frequency     0.11680 a.u.
 after   23 linear transformations is      1.33928217D+04
 INERTIA (POS,ZER,NEG) of reduced matrix is   44    0    2
 Determinant of reduced matrix is  4.06 * 10 **-43.0

       No.  Residual tot.,    conf., and orb.    Bnorm      Frequency 
      ----------------------------------------------------------------
         1    7.96954D-01  5.06D-01  6.16D-01  5.41D+02    1.16800D-01

 ** RSPCTL MICROITERATION NUMBER   23

 *** INFO, negative eigenvalues in reduced matrix. Symmetry  1,  triplet       F Dimension of reduced matrix =    48

 GP * SOLUTION vector at frequency     0.11680 a.u.
 after   24 linear transformations is      1.33931364D+04
 INERTIA (POS,ZER,NEG) of reduced matrix is   46    0    2
 Determinant of reduced matrix is  2.80 * 10 **-46.0

       No.  Residual tot.,    conf., and orb.    Bnorm      Frequency 
      ----------------------------------------------------------------
         1    6.20824D-01  4.99D-01  3.69D-01  5.47D+02    1.16800D-01

 ** RSPCTL MICROITERATION NUMBER   24

 *** INFO, negative eigenvalues in reduced matrix. Symmetry  1,  triplet       F Dimension of reduced matrix =    50

 GP * SOLUTION vector at frequency     0.11680 a.u.
 after   25 linear transformations is      1.33934297D+04
 INERTIA (POS,ZER,NEG) of reduced matrix is   48    0    2
 Determinant of reduced matrix is  1.72 * 10 **-46.0

       No.  Residual tot.,    conf., and orb.    Bnorm      Frequency 
      ----------------------------------------------------------------
         1    3.48094D-01  4.16D-02  3.46D-01  5.47D+02    1.16800D-01

 *** THE REQUESTED    1 SOLUTION VECTORS CONVERGED

 Convergence of RSP solution vectors, threshold = 1.00D-03
 ---------------------------------------------------------------
 (dimension of paired reduced space:   50)
 RSP solution vector no.    1; norm of residual   6.36D-04

 *** RSPCTL MICROITERATIONS CONVERGED
    YDIPLEN     YDIPLEN      freq1     freq2                Norm
 ---------------------------------------------------------------
                          0.058400  0.058400        547.23574270
  Time used in CRVEC2     is       2 hours 58 minutes 29 seconds


 ----- CALCULATING CONTRIBUTIONS TO SECOND HYPERPOLARIZABILITY -----


   Contribution                Term         Accumulated
 ------------------------------------------------------
 Na T[4] Nb Nc Nd 91460140.18065591   91460140.18065591
 Na T[3] Nx Nyz  -61569510.96884121   29890629.21181471
 Na X[3] Ny Nz     4793097.10892358   34683726.32073828
 Nx A[3] Ny Nz     1597699.03630787   36281425.35704614
 Na X[2] Nyz      -4351958.58766589   31929466.76938025
 Nx A[2] Nyz      -4803168.98862297   27126297.78075728

@ Cubic response function value in a.u. for
@ A operator, symmetry, frequency:   ZDIPLEN    1 -0.058400
@ B operator, symmetry, frequency:   ZDIPLEN    1  0.058400
@ C operator, symmetry, frequency:   ZDIPLEN    1 -0.058400
@ D operator, symmetry, frequency:   ZDIPLEN    1  0.058400

@ << A; B, C, D >>  =    27126297.78075728



   Contribution                Term         Accumulated
 ------------------------------------------------------
 Na T[4] Nb Nc Nd   399299.88997215     399299.88997215
 Na T[3] Nx Nyz    -743874.43087014    -344574.54089800
 Na X[3] Ny Nz      527675.68381493     183101.14291693
 Nx A[3] Ny Nz      501014.77182973     684115.91474667
 Na X[2] Nyz        -99827.89602747     584288.01871919
 Nx A[2] Nyz       -504264.73780299      80023.28091621

@ Cubic response function value in a.u. for
@ A operator, symmetry, frequency:   XDIPLEN    2 -0.058400
@ B operator, symmetry, frequency:   XDIPLEN    2  0.058400
@ C operator, symmetry, frequency:   ZDIPLEN    1 -0.058400
@ D operator, symmetry, frequency:   ZDIPLEN    1  0.058400

@ << A; B, C, D >>  =       80023.28091621



   Contribution                Term         Accumulated
 ------------------------------------------------------
 Na T[4] Nb Nc Nd   -37325.21803370     -37325.21803370
 Na T[3] Nx Nyz     -11957.96080838     -49283.17884208
 Na X[3] Ny Nz       94530.41953275      45247.24069067
 Nx A[3] Ny Nz       61004.43889261     106251.67958327
 Na X[2] Nyz          7757.26586898     114008.94545225
 Nx A[2] Nyz       -171722.59208069     -57713.64662844

@ Cubic response function value in a.u. for
@ A operator, symmetry, frequency:   YDIPLEN    3 -0.058400
@ B operator, symmetry, frequency:   YDIPLEN    3  0.058400
@ C operator, symmetry, frequency:   ZDIPLEN    1 -0.058400
@ D operator, symmetry, frequency:   ZDIPLEN    1  0.058400

@ << A; B, C, D >>  =      -57713.64662844



   Contribution                Term         Accumulated
 ------------------------------------------------------
 Na T[4] Nb Nc Nd   199567.42130444     199567.42130444
 Na T[3] Nx Nyz    -611261.49683855    -411694.07553411
 Na X[3] Ny Nz       84068.62098332    -327625.45455079
 Nx A[3] Ny Nz       -3117.90954236    -330743.36409315
 Na X[2] Nyz          4631.18412536    -326112.17996779
 Nx A[2] Nyz         85325.72229538    -240786.45767241

@ Cubic response function value in a.u. for
@ A operator, symmetry, frequency:   XDIPLEN    2 -0.058400
@ B operator, symmetry, frequency:   ZDIPLEN    1  0.058400
@ C operator, symmetry, frequency:   XDIPLEN    2 -0.058400
@ D operator, symmetry, frequency:   ZDIPLEN    1  0.058400

@ << A; B, C, D >>  =     -240786.45767241



   Contribution                Term         Accumulated
 ------------------------------------------------------
 Na T[4] Nb Nc Nd   -18353.53341103     -18353.53341103
 Na T[3] Nx Nyz     -13938.42546996     -32291.95888099
 Na X[3] Ny Nz       45068.09896020      12776.14007921
 Nx A[3] Ny Nz       13219.27825215      25995.41833136
 Na X[2] Nyz        -22448.48574705       3546.93258431
 Nx A[2] Nyz        -87516.43319118     -83969.50060687

@ Cubic response function value in a.u. for
@ A operator, symmetry, frequency:   YDIPLEN    3 -0.058400
@ B operator, symmetry, frequency:   ZDIPLEN    1  0.058400
@ C operator, symmetry, frequency:   YDIPLEN    3 -0.058400
@ D operator, symmetry, frequency:   ZDIPLEN    1  0.058400

@ << A; B, C, D >>  =      -83969.50060687



   Contribution                Term         Accumulated
 ------------------------------------------------------
 Na T[4] Nb Nc Nd   227128.39055832     227128.39055832
 Na T[3] Nx Nyz    -686685.44898182    -459557.05842350
 Na X[3] Ny Nz      -73149.37599762    -532706.43442111
 Nx A[3] Ny Nz        6757.65787093    -525948.77655019
 Na X[2] Nyz        195133.47953037    -330815.29701982
 Nx A[2] Nyz         86296.49981653    -244518.79720328

@ Cubic response function value in a.u. for
@ A operator, symmetry, frequency:   ZDIPLEN    1 -0.058400
@ B operator, symmetry, frequency:   XDIPLEN    2  0.058400
@ C operator, symmetry, frequency:   ZDIPLEN    1 -0.058400
@ D operator, symmetry, frequency:   XDIPLEN    2  0.058400

@ << A; B, C, D >>  =     -244518.79720328



   Contribution                Term         Accumulated
 ------------------------------------------------------
 Na T[4] Nb Nc Nd    40247.36093596      40247.36093596
 Na T[3] Nx Nyz    -131058.18644460     -90810.82550864
 Na X[3] Ny Nz      101674.12212224      10863.29661359
 Nx A[3] Ny Nz       33891.37404075      44754.67065434
 Na X[2] Nyz        -22166.35715367      22588.31350067
 Nx A[2] Nyz        -48040.72236698     -25452.40886630

@ Cubic response function value in a.u. for
@ A operator, symmetry, frequency:   XDIPLEN    2 -0.058400
@ B operator, symmetry, frequency:   XDIPLEN    2  0.058400
@ C operator, symmetry, frequency:   XDIPLEN    2 -0.058400
@ D operator, symmetry, frequency:   XDIPLEN    2  0.058400

@ << A; B, C, D >>  =      -25452.40886630



   Contribution                Term         Accumulated
 ------------------------------------------------------
 Na T[4] Nb Nc Nd    -3556.09436206      -3556.09436206
 Na T[3] Nx Nyz         27.46005238      -3528.63430968
 Na X[3] Ny Nz        6522.90333555       2994.26902587
 Nx A[3] Ny Nz        2657.70552882       5651.97455469
 Na X[2] Nyz        -11207.50635569      -5555.53180100
 Nx A[2] Nyz        -16678.87481608     -22234.40661707

@ Cubic response function value in a.u. for
@ A operator, symmetry, frequency:   YDIPLEN    3 -0.058400
@ B operator, symmetry, frequency:   YDIPLEN    3  0.058400
@ C operator, symmetry, frequency:   XDIPLEN    2 -0.058400
@ D operator, symmetry, frequency:   XDIPLEN    2  0.058400

@ << A; B, C, D >>  =      -22234.40661707



   Contribution                Term         Accumulated
 ------------------------------------------------------
 Na T[4] Nb Nc Nd    -2932.46767867      -2932.46767867
 Na T[3] Nx Nyz        310.99394421      -2621.47373446
 Na X[3] Ny Nz        5442.43994200       2820.96620754
 Nx A[3] Ny Nz        1966.48176059       4787.44796813
 Na X[2] Nyz        -12446.28868277      -7658.84071465
 Nx A[2] Nyz        -16003.28884821     -23662.12956286

@ Cubic response function value in a.u. for
@ A operator, symmetry, frequency:   YDIPLEN    3 -0.058400
@ B operator, symmetry, frequency:   XDIPLEN    2  0.058400
@ C operator, symmetry, frequency:   YDIPLEN    3 -0.058400
@ D operator, symmetry, frequency:   XDIPLEN    2  0.058400

@ << A; B, C, D >>  =      -23662.12956286



   Contribution                Term         Accumulated
 ------------------------------------------------------
 Na T[4] Nb Nc Nd     2302.99432295       2302.99432295
 Na T[3] Nx Nyz     -64857.11507375     -62554.12075080
 Na X[3] Ny Nz        -606.03356480     -63160.15431560
 Nx A[3] Ny Nz        1601.41021298     -61558.74410262
 Na X[2] Nyz        -29637.90802174     -91196.65212436
 Nx A[2] Nyz          7365.29124680     -83831.36087756

@ Cubic response function value in a.u. for
@ A operator, symmetry, frequency:   ZDIPLEN    1 -0.058400
@ B operator, symmetry, frequency:   YDIPLEN    3  0.058400
@ C operator, symmetry, frequency:   ZDIPLEN    1 -0.058400
@ D operator, symmetry, frequency:   YDIPLEN    3  0.058400

@ << A; B, C, D >>  =      -83831.36087756



   Contribution                Term         Accumulated
 ------------------------------------------------------
 Na T[4] Nb Nc Nd    -1154.43846140      -1154.43846140
 Na T[3] Nx Nyz       -679.04547236      -1833.48393376
 Na X[3] Ny Nz        2028.11757633        194.63364257
 Nx A[3] Ny Nz         523.70407885        718.33772142
 Na X[2] Nyz        -12731.30057498     -12012.96285356
 Nx A[2] Nyz        -11653.82537997     -23666.78823353

@ Cubic response function value in a.u. for
@ A operator, symmetry, frequency:   XDIPLEN    2 -0.058400
@ B operator, symmetry, frequency:   YDIPLEN    3  0.058400
@ C operator, symmetry, frequency:   XDIPLEN    2 -0.058400
@ D operator, symmetry, frequency:   YDIPLEN    3  0.058400

@ << A; B, C, D >>  =      -23666.78823353



   Contribution                Term         Accumulated
 ------------------------------------------------------
 Na T[4] Nb Nc Nd     -774.59195247       -774.59195247
 Na T[3] Nx Nyz       3666.72137296       2892.12942048
 Na X[3] Ny Nz        2404.87575253       5297.00517301
 Nx A[3] Ny Nz         801.62525084       6098.63042386
 Na X[2] Nyz        -15716.87482191      -9618.24439806
 Nx A[2] Nyz        -15786.22683549     -25404.47123355

@ Cubic response function value in a.u. for
@ A operator, symmetry, frequency:   YDIPLEN    3 -0.058400
@ B operator, symmetry, frequency:   YDIPLEN    3  0.058400
@ C operator, symmetry, frequency:   YDIPLEN    3 -0.058400
@ D operator, symmetry, frequency:   YDIPLEN    3  0.058400

@ << A; B, C, D >>  =      -25404.47123355



  Summary of gamma values for a set of frequencies
 -------------------------------------------------

@ B-freq:  0.058400
@ C-freq: -0.058400
@ D-freq:  0.058400

@ gamma(X;X,X,X)      25452.4089
@ gamma(X;X,Y,Y)      22234.4066
@ gamma(X;Y,Y,X)      22234.4066
@ gamma(X;Y,X,Y)      23666.7882
@ gamma(X;X,Z,Z)     -80023.2809
@ gamma(X;Z,Z,X)     -80023.2809
@ gamma(X;Z,X,Z)     240786.4577
@ gamma(Y;Y,X,X)      22234.4066
@ gamma(Y;X,X,Y)      22234.4066
@ gamma(Y;X,Y,X)      23662.1296
@ gamma(Y;Y,Y,Y)      25404.4712
@ gamma(Y;Y,Z,Z)      57713.6466
@ gamma(Y;Z,Z,Y)      57713.6466
@ gamma(Y;Z,Y,Z)      83969.5006
@ gamma(Z;Z,X,X)     -80023.2809
@ gamma(Z;X,X,Z)     -80023.2809
@ gamma(Z;X,Z,X)     244518.7972
@ gamma(Z;Z,Y,Y)      57713.6466
@ gamma(Z;Y,Y,Z)      57713.6466
@ gamma(Z;Y,Z,Y)      83831.3609
@ gamma(Z;Z,Z,Z)  -27126297.7808

@ Averaged gamma parallel to the applied field is  -5368412.571900

  Total CPU  time used in RESPONSE:   8 hours  0 minutes 20 seconds
  Total wall time used in RESPONSE:   8 hours  0 minutes 39 seconds


                   .-------------------------------------------.
                   | End of Dynamic Property Section (RESPONS) |
                   `-------------------------------------------'

  Total CPU  time used in DALTON:  10 hours 59 minutes  1 second 
  Total wall time used in DALTON:  10 hours 59 minutes 27 seconds

 
     Date and time (Linux)  : Sun Feb  9 22:50:10 2020
     Host name              : Lab2-333-NPs                            
