

     ************************************************************************
     *************** Dalton - An Electronic Structure Program ***************
     ************************************************************************

    This is output from DALTON release Dalton2018.1 (2019)
         ( Web site: http://daltonprogram.org )

   ----------------------------------------------------------------------------

    NOTE:
     
    Dalton is an experimental code for the evaluation of molecular
    properties using (MC)SCF, DFT, CI, and CC wave functions.
    The authors accept no responsibility for the performance of
    the code or for the correctness of the results.
     
    The code (in whole or part) is provided under a licence and
    is not to be reproduced for further distribution without
    the written permission of the authors or their representatives.
     
    See the home page "http://daltonprogram.org" for further information.
     
    If results obtained with this code are published,
    the appropriate citations would be both of:
     
       K. Aidas, C. Angeli, K. L. Bak, V. Bakken, R. Bast,
       L. Boman, O. Christiansen, R. Cimiraglia, S. Coriani,
       P. Dahle, E. K. Dalskov, U. Ekstroem,
       T. Enevoldsen, J. J. Eriksen, P. Ettenhuber, B. Fernandez,
       L. Ferrighi, H. Fliegl, L. Frediani, K. Hald, A. Halkier,
       C. Haettig, H. Heiberg, T. Helgaker, A. C. Hennum,
       H. Hettema, E. Hjertenaes, S. Hoest, I.-M. Hoeyvik,
       M. F. Iozzi, B. Jansik, H. J. Aa. Jensen, D. Jonsson,
       P. Joergensen, J. Kauczor, S. Kirpekar,
       T. Kjaergaard, W. Klopper, S. Knecht, R. Kobayashi, H. Koch,
       J. Kongsted, A. Krapp, K. Kristensen, A. Ligabue,
       O. B. Lutnaes, J. I. Melo, K. V. Mikkelsen, R. H. Myhre,
       C. Neiss, C. B. Nielsen, P. Norman, J. Olsen,
       J. M. H. Olsen, A. Osted, M. J. Packer, F. Pawlowski,
       T. B. Pedersen, P. F. Provasi, S. Reine, Z. Rinkevicius,
       T. A. Ruden, K. Ruud, V. Rybkin, P. Salek, C. C. M. Samson,
       A. Sanchez de Meras, T. Saue, S. P. A. Sauer,
       B. Schimmelpfennig, K. Sneskov, A. H. Steindal,
       K. O. Sylvester-Hvid, P. R. Taylor, A. M. Teale,
       E. I. Tellgren, D. P. Tew, A. J. Thorvaldsen, L. Thoegersen,
       O. Vahtras, M. A. Watson, D. J. D. Wilson, M. Ziolkowski
       and H. Agren,
       "The Dalton quantum chemistry program system",
       WIREs Comput. Mol. Sci. 2014, 4:269–284 (doi: 10.1002/wcms.1172)
     
    and
     
       Dalton, a molecular electronic structure program,
       Release Dalton2018.1 (2019), see http://daltonprogram.org
   ----------------------------------------------------------------------------

    Authors in alphabetical order (major contribution(s) in parenthesis):

  Kestutis Aidas,           Vilnius University,           Lithuania   (QM/MM)
  Celestino Angeli,         University of Ferrara,        Italy       (NEVPT2)
  Keld L. Bak,              UNI-C,                        Denmark     (AOSOPPA, non-adiabatic coupling, magnetic properties)
  Vebjoern Bakken,          University of Oslo,           Norway      (DALTON; geometry optimizer, symmetry detection)
  Radovan Bast,             UiT The Arctic U. of Norway,  Norway      (DALTON installation and execution frameworks)
  Pablo Baudin,             University of Valencia,       Spain       (Cholesky excitation energies)
  Linus Boman,              NTNU,                         Norway      (Cholesky decomposition and subsystems)
  Ove Christiansen,         Aarhus University,            Denmark     (CC module)
  Renzo Cimiraglia,         University of Ferrara,        Italy       (NEVPT2)
  Sonia Coriani,            Technical Univ. of Denmark,   Denmark     (CC module, MCD in RESPONS)
  Janusz Cukras,            University of Trieste,        Italy       (MChD in RESPONS)
  Paal Dahle,               University of Oslo,           Norway      (Parallelization)
  Erik K. Dalskov,          UNI-C,                        Denmark     (SOPPA)
  Thomas Enevoldsen,        Univ. of Southern Denmark,    Denmark     (SOPPA)
  Janus J. Eriksen,         Aarhus University,            Denmark     (Polarizable embedding model, TDA)
  Rasmus Faber,             University of Copenhagen,     Denmark     (Vib.avg. NMR with SOPPA, parallel AO-SOPPA)
  Tobias Fahleson,          KTH Stockholm,                Sweden      (Damped cubic response)
  Berta Fernandez,          U. of Santiago de Compostela, Spain       (doublet spin, ESR in RESPONS)
  Lara Ferrighi,            Aarhus University,            Denmark     (PCM Cubic response)
  Heike Fliegl,             University of Oslo,           Norway      (CCSD(R12))
  Luca Frediani,            UiT The Arctic U. of Norway,  Norway      (PCM)
  Bin Gao,                  UiT The Arctic U. of Norway,  Norway      (Gen1Int library)
  Christof Haettig,         Ruhr-University Bochum,       Germany     (CC module)
  Kasper Hald,              Aarhus University,            Denmark     (CC module)
  Asger Halkier,            Aarhus University,            Denmark     (CC module)
  Frederik Beyer Hansen,    University of Copenhagen,     Denmark     (Parallel AO-SOPPA)
  Erik D. Hedegaard,        Univ. of Southern Denmark,    Denmark     (Polarizable embedding model, QM/MM)
  Hanne Heiberg,            University of Oslo,           Norway      (geometry analysis, selected one-electron integrals)
  Trygve Helgaker,          University of Oslo,           Norway      (DALTON; ABACUS, ERI, DFT modules, London, and much more)
  Alf Christian Hennum,     University of Oslo,           Norway      (Parity violation)
  Hinne Hettema,            University of Auckland,       New Zealand (quadratic response in RESPONS; SIRIUS supersymmetry)
  Eirik Hjertenaes,         NTNU,                         Norway      (Cholesky decomposition)
  Pi A. B. Haase,           University of Copenhagen,     Denmark     (Triplet AO-SOPPA)
  Maria Francesca Iozzi,    University of Oslo,           Norway      (RPA)
  Christoph Jacob           TU Braunschweig               Germany     (Frozen density embedding model)
  Brano Jansik              Technical Univ. of Ostrava    Czech Rep.  (DFT cubic response)
  Hans Joergen Aa. Jensen,  Univ. of Southern Denmark,    Denmark     (DALTON; SIRIUS, RESPONS, ABACUS modules, London, and much more)
  Dan Jonsson,              UiT The Arctic U. of Norway,  Norway      (cubic response in RESPONS module)
  Poul Joergensen,          Aarhus University,            Denmark     (RESPONS, ABACUS, and CC modules)
  Maciej Kaminski,          University of Warsaw,         Poland      (CPPh in RESPONS)
  Joanna Kauczor,           Linkoeping University,        Sweden      (Complex polarization propagator (CPP) module)
  Sheela Kirpekar,          Univ. of Southern Denmark,    Denmark     (Mass-velocity & Darwin integrals)
  Wim Klopper,              KIT Karlsruhe,                Germany     (R12 code in CC, SIRIUS, and ABACUS modules)
  Stefan Knecht,            ETH Zurich,                   Switzerland (Parallel CI and MCSCF)
  Rika Kobayashi,           Australian National Univ.,    Australia   (DIIS in CC, London in MCSCF)
  Henrik Koch,              NTNU,                         Norway      (CC module, Cholesky decomposition)
  Jacob Kongsted,           Univ. of Southern Denmark,    Denmark     (Polarizable embedding model, QM/MM)
  Andrea Ligabue,           University of Modena,         Italy       (CTOCD, AOSOPPA)
  Nanna H. List             Univ. of Southern Denmark,    Denmark     (Polarizable embedding model)
  Ola B. Lutnaes,           University of Oslo,           Norway      (DFT Hessian)
  Juan I. Melo,             University of Buenos Aires,   Argentina   (LRESC, Relativistic Effects on NMR Shieldings)
  Kurt V. Mikkelsen,        University of Copenhagen,     Denmark     (MC-SCRF and QM/MM)
  Rolf H. Myhre,            NTNU,                         Norway      (Subsystems and CC3)
  Christian Neiss,          Univ. Erlangen-Nuernberg,     Germany     (CCSD(R12))
  Christian B. Nielsen,     University of Copenhagen,     Denmark     (QM/MM)
  Patrick Norman,           KTH Stockholm,                Sweden      (Cubic response and complex frequency response in RESPONS)
  Jeppe Olsen,              Aarhus University,            Denmark     (SIRIUS CI/density modules)
  Jogvan Magnus H. Olsen,   Univ. of Southern Denmark,    Denmark     (Polarizable embedding model, QM/MM)
  Anders Osted,             Copenhagen University,        Denmark     (QM/MM)
  Martin J. Packer,         University of Sheffield,      UK          (SOPPA)
  Filip Pawlowski,          Kazimierz Wielki University,  Poland      (CC3)
  Morten N. Pedersen,       Univ. of Southern Denmark,    Denmark     (Polarizable embedding model)
  Thomas B. Pedersen,       University of Oslo,           Norway      (Cholesky decomposition)
  Patricio F. Provasi,      University of Northeastern,   Argentina   (Analysis of coupling constants in localized orbitals)
  Zilvinas Rinkevicius,     KTH Stockholm,                Sweden      (open-shell DFT, ESR)
  Elias Rudberg,            KTH Stockholm,                Sweden      (DFT grid and basis info)
  Torgeir A. Ruden,         University of Oslo,           Norway      (Numerical derivatives in ABACUS)
  Kenneth Ruud,             UiT The Arctic U. of Norway,  Norway      (DALTON; ABACUS magnetic properties and much more)
  Pawel Salek,              KTH Stockholm,                Sweden      (DALTON; DFT code)
  Claire C. M. Samson       University of Karlsruhe       Germany     (Boys localization, r12 integrals in ERI)
  Alfredo Sanchez de Meras, University of Valencia,       Spain       (CC module, Cholesky decomposition)
  Trond Saue,               Paul Sabatier University,     France      (direct Fock matrix construction)
  Stephan P. A. Sauer,      University of Copenhagen,     Denmark     (SOPPA(CCSD), SOPPA prop., AOSOPPA, vibrational g-factors)
  Andre S. P. Gomes,        CNRS/Universite de Lille,     France      (Frozen density embedding model)
  Bernd Schimmelpfennig,    Forschungszentrum Karlsruhe,  Germany     (AMFI module)
  Kristian Sneskov,         Aarhus University,            Denmark     (Polarizable embedding model, QM/MM)
  Arnfinn H. Steindal,      UiT The Arctic U. of Norway,  Norway      (parallel QM/MM, Polarizable embedding model)
  Casper Steinmann,         Univ. of Southern Denmark,    Denmark     (QFIT, Polarizable embedding model)
  K. O. Sylvester-Hvid,     University of Copenhagen,     Denmark     (MC-SCRF)
  Peter R. Taylor,          VLSCI/Univ. of Melbourne,     Australia   (Symmetry handling ABACUS, integral transformation)
  Andrew M. Teale,          University of Nottingham,     England     (DFT-AC, DFT-D)
  David P. Tew,             University of Bristol,        England     (CCSD(R12))
  Olav Vahtras,             KTH Stockholm,                Sweden      (triplet response, spin-orbit, ESR, TDDFT, open-shell DFT)
  Lucas Visscher,           Vrije Universiteit Amsterdam, Netherlands (Frozen density embedding model)
  David J. Wilson,          La Trobe University,          Australia   (DFT Hessian and DFT magnetizabilities)
  Hans Agren,               KTH Stockholm,                Sweden      (SIRIUS module, RESPONS, MC-SCRF solvation model)
 --------------------------------------------------------------------------------

     Date and time (Linux)  : Wed Feb  5 05:01:29 2020
     Host name              : Lab2-333-NPs                            

 * Work memory size             :  1024000000 =  7.629 gigabytes.

 * Directories for basis set searches:
   1) /home/lab333/dalton/build_2018_atlas
   2) /home/lab333/dalton/build_2018_atlas/basis


Compilation information
-----------------------

 Who compiled             | lab333
 Host                     | Lab2-333-NPs
 System                   | Linux-4.4.0-43-Microsoft
 CMake generator          | Unix Makefiles
 Processor                | x86_64
 64-bit integers          | OFF
 MPI                      | OFF
 Fortran compiler         | /usr/bin/gfortran
 Fortran compiler version | GNU Fortran (Ubuntu 7.3.0-27ubuntu1~18.04) 7.3.0
 C compiler               | /usr/bin/gcc
 C compiler version       | gcc (Ubuntu 7.3.0-27ubuntu1~18.04) 7.3.0
 C++ compiler             | /usr/bin/g++
 C++ compiler version     | g++ (Ubuntu 7.3.0-27ubuntu1~18.04) 7.3.0
 BLAS                     | /usr/lib/x86_64-linux-gnu/libf77blas.so;/usr/lib/x
                          | 86_64-linux-gnu/libcblas.so;/usr/lib/x86_64-linux-
                          | gnu/libatlas.so
 LAPACK                   | /usr/lib/x86_64-linux-gnu/libatlas.so;/usr/lib/x86
                          | _64-linux-gnu/atlas/liblapack.so
 Static linking           | OFF
 Last Git revision        | da625bf48c74028e805616daee31bc5d76b3a20d
 Git branch               | (HEAD detached at Dalton2018.1)
 Configuration time       | 2019-01-18 10:20:51.437510


   Content of the .dal input file
 ----------------------------------

**DALTON INPUT
.RUN RESPONSE
.DIRECT
**WAVE FUNCTIONS
.HF
.MP2
.MCSCF
*CONFIGURATION INPUT
.SPIN MULTIPLICITY
1
.SYMMETRY
1
.INACTIVE ORBITALS
15 10 2 0
.CAS SPACE
1 1 2 3
.ELECTRONS
10
*ORBITAL INPUT
.MOSTART
.HUCKEL
*OPTIMIZATION
.DETERMINANTS
.STATE
2
*CI VECTOR
.PLUS COMBINATIONS
**RESPONSE
*CUBIC
.DIPLEN
.BFREQ
1
0.0584
.CFREQ
1
-0.0584
.DFREQ
1
0.0584
**END OF DALTON INPUT


   Content of the .mol file
 ----------------------------

BASIS
aug-cc-pCVDZ
 nitrobenzene
 Generated by the Dalton Input File Plugin for Avogadro
Atomtypes=4 Angstrom Generators=2 X Y
Charge=6.0 Atoms=4
C        0.0000000000            0.0000000000           -0.0265759623
C       -1.2190534920            0.0000000000           -0.6979856948
C       -1.2105095870            0.0000000000           -2.0897394457
C        0.0000000000            0.0000000000           -2.7841484631
Charge=7.0 Atoms=1
N        0.0000000000            0.0000000000            1.4549291696
Charge=8.0 Atoms=1
O       1.1004245573672222            0.0            1.9926192638262359
Charge=1.0 Atoms=3
H       -2.1410602955            0.0000000000           -0.1327964319
H       -2.1492827751            0.0000000000           -2.6311811056
H        0.0000000000            0.0000000000           -3.8683953478


       *******************************************************************
       *********** Output from DALTON general input processing ***********
       *******************************************************************

 --------------------------------------------------------------------------------
   Overall default print level:    0
   Print level for DALTON.STAT:    1

    AO-direct calculation (in sections where implemented)
    HERMIT 1- and 2-electron integral sections will be executed
    "Old" integral transformation used (limited to max 255 basis functions)
    Wave function sections will be executed (SIRIUS module)
    Dynamic molecular response properties section will be executed (RESPONSE module)
 --------------------------------------------------------------------------------


   ****************************************************************************
   *************** Output of molecule and basis set information ***************
   ****************************************************************************


    The two title cards from your ".mol" input:
    ------------------------------------------------------------------------
 1:  nitrobenzene                                                           
 2:  Generated by the Dalton Input File Plugin for Avogadro                 
    ------------------------------------------------------------------------

  Coordinates are entered in Angstrom and converted to atomic units.
          - Conversion factor : 1 bohr = 0.52917721 A

  Atomic type no.    1
  --------------------
  Nuclear charge:   6.00000
  Number of symmetry independent centers:    4
  Number of basis sets to read;    2
  Basis set file used for this atomic type with Z =   6 :
     "/home/lab333/dalton/build_2018_atlas/basis/aug-cc-pCVDZ"

  Atomic type no.    2
  --------------------
  Nuclear charge:   7.00000
  Number of symmetry independent centers:    1
  Number of basis sets to read;    2
  Basis set file used for this atomic type with Z =   7 :
     "/home/lab333/dalton/build_2018_atlas/basis/aug-cc-pCVDZ"

  Atomic type no.    3
  --------------------
  Nuclear charge:   8.00000
  Number of symmetry independent centers:    1
  Number of basis sets to read;    2
  Basis set file used for this atomic type with Z =   8 :
     "/home/lab333/dalton/build_2018_atlas/basis/aug-cc-pCVDZ"

  Atomic type no.    4
  --------------------
  Nuclear charge:   1.00000
  Number of symmetry independent centers:    3
  Number of basis sets to read;    2
  Basis set file used for this atomic type with Z =   1 :
     "/home/lab333/dalton/build_2018_atlas/basis/aug-cc-pCVDZ"


                         SYMGRP: Point group information
                         -------------------------------

@    Point group: C2v

@  * The irrep name for each symmetry:    1: A1     2: B1     3: B2     4: A2 

   * The point group was generated by:

      Reflection in the yz-plane
      Reflection in the xz-plane

   * Group multiplication table

        |  E   C2z  Oxz  Oyz
   -----+--------------------
     E  |  E   C2z  Oxz  Oyz
    C2z | C2z   E   Oyz  Oxz
    Oxz | Oxz  Oyz   E   C2z
    Oyz | Oyz  Oxz  C2z   E 

   * Character table

        |  E   C2z  Oxz  Oyz
   -----+--------------------
    A1  |   1    1    1    1
    B1  |   1   -1    1   -1
    B2  |   1   -1   -1    1
    A2  |   1    1   -1   -1

   * Direct product table

        | A1   B1   B2   A2 
   -----+--------------------
    A1  | A1   B1   B2   A2 
    B1  | B1   A1   A2   B2 
    B2  | B2   A2   A1   B1 
    A2  | A2   B2   B1   A1 


                                 Isotopic Masses
                                 ---------------

                           C          12.000000
                           C   _1     12.000000
                           C   _2     12.000000
                           C   _1     12.000000
                           C   _2     12.000000
                           C          12.000000
                           N          14.003074
                           O   _1     15.994915
                           O   _2     15.994915
                           H   _1      1.007825
                           H   _2      1.007825
                           H   _1      1.007825
                           H   _2      1.007825
                           H           1.007825

                       Total mass:   123.032029 amu
                       Natural abundance:  92.716 %

 Center-of-mass coordinates (a.u.):    0.000000    0.000000   -0.399150


  Atoms and basis sets
  --------------------

  Number of atom types :    4
  Total number of atoms:   14

  Basis set used is "aug-cc-pCVDZ" from the basis set library.

  label    atoms   charge   prim   cont     basis
  ----------------------------------------------------------------------
  C           6    6.0000    39    27      [11s6p2d|5s4p2d]                                   
  N           1    7.0000    39    27      [11s6p2d|5s4p2d]                                   
  O           2    8.0000    39    27      [11s6p2d|5s4p2d]                                   
  H           5    1.0000    11     9      [5s2p|3s2p]                                        
  ----------------------------------------------------------------------
  total:     14   64.0000   406   288
  ----------------------------------------------------------------------
  Spherical harmonic basis used.

  Threshold for neglecting AO integrals:  1.00D-12


  Symmetry Coordinates
  --------------------

  Number of coordinates in each symmetry:    14   14    9    5


   Interatomic separations (in Angstrom):
   --------------------------------------

            C           C   _1      C   _2      C   _1      C   _2      C     
            ------      ------      ------      ------      ------      ------
 C     :    0.000000
 C   _1:    1.391719    0.000000
 C   _2:    1.391719    2.438107    0.000000
 C   _1:    2.392065    1.391780    2.799956    0.000000
 C   _2:    2.392065    2.799956    1.391780    2.421019    0.000000
 C     :    2.757573    2.416230    2.416230    1.395542    1.395542    0.000000
 N     :    1.481505    2.474093    2.474093    3.745665    3.745665    4.239078
 O   _1:    2.299583    3.552370    2.693219    4.691063    4.083843    4.901882
 O   _2:    2.299583    2.693219    3.552370    4.083843    4.691063    4.901882
 H   _1:    2.143694    1.081451    3.407316    2.166922    3.881063    3.407904
 H   _2:    2.143694    3.407316    1.081451    3.881063    2.166922    3.407904
 H   _1:    3.376890    2.145360    3.883675    1.083722    3.403140    2.154719
 H   _2:    3.376890    3.883675    2.145360    3.403140    1.083722    2.154719
 H     :    3.841819    3.396703    3.396703    2.151500    2.151500    1.084247

            N           O   _1      O   _2      H   _1      H   _2      H   _1
            ------      ------      ------      ------      ------      ------
 N     :    0.000000
 O   _1:    1.224763    0.000000
 O   _2:    1.224763    2.200849    0.000000
 H   _1:    2.665523    3.876160    2.366498    0.000000
 H   _2:    2.665523    2.366498    3.876160    4.282121    0.000000
 H   _1:    4.616894    5.651560    4.741269    2.498398    4.964773    0.000000
 H   _2:    4.616894    4.741269    5.651560    4.964773    2.498398    4.298566
 H     :    5.323325    5.963424    5.963424    4.305675    4.305675    2.479943

            H   _2      H     
            ------      ------
 H   _2:    0.000000
 H     :    2.479943    0.000000


  Max    interatomic separation is    5.9634 Angstrom (   11.2692 Bohr)
  between atoms   14 and    8, "H     " and "O   _1".

  Min HX interatomic separation is    1.0815 Angstrom (    2.0436 Bohr)

  Min YX interatomic separation is    1.2248 Angstrom (    2.3145 Bohr)


  Bond distances (Angstrom):
  --------------------------

                  atom 1     atom 2       distance
                  ------     ------       --------
  bond distance:  C   _1     C            1.391719
  bond distance:  C   _2     C            1.391719
  bond distance:  C   _1     C   _1       1.391780
  bond distance:  C   _2     C   _2       1.391780
  bond distance:  C          C   _1       1.395542
  bond distance:  C          C   _2       1.395542
  bond distance:  N          C            1.481505
  bond distance:  O   _1     N            1.224763
  bond distance:  O   _2     N            1.224763
  bond distance:  H   _1     C   _1       1.081451
  bond distance:  H   _2     C   _2       1.081451
  bond distance:  H   _1     C   _1       1.083722
  bond distance:  H   _2     C   _2       1.083722
  bond distance:  H          C            1.084247


  Bond angles (degrees):
  ----------------------

                  atom 1     atom 2     atom 3         angle
                  ------     ------     ------         -----
  bond angle:     C   _1     C          C   _2       122.311
  bond angle:     C   _1     C          N            118.844
  bond angle:     C   _2     C          N            118.844
  bond angle:     C          C   _1     C   _1       118.493
  bond angle:     C          C   _1     H   _1       119.647
  bond angle:     C   _1     C   _1     H   _1       121.860
  bond angle:     C          C   _2     C   _2       118.493
  bond angle:     C          C   _2     H   _2       119.647
  bond angle:     C   _2     C   _2     H   _2       121.860
  bond angle:     C   _1     C   _1     C            120.192
  bond angle:     C   _1     C   _1     H   _1       119.623
  bond angle:     C          C   _1     H   _1       120.185
  bond angle:     C   _2     C   _2     C            120.192
  bond angle:     C   _2     C   _2     H   _2       119.623
  bond angle:     C          C   _2     H   _2       120.185
  bond angle:     C   _1     C          C   _2       120.319
  bond angle:     C   _1     C          H            119.841
  bond angle:     C   _2     C          H            119.841
  bond angle:     C          N          O   _1       116.041
  bond angle:     C          N          O   _2       116.041
  bond angle:     O   _1     N          O   _2       127.918




 Principal moments of inertia (u*A**2) and principal axes
 --------------------------------------------------------

   IA     128.122923          0.000000    0.000000    1.000000
   IB     389.768261          1.000000    0.000000    0.000000
   IC     517.891184          0.000000    1.000000    0.000000


 Rotational constants
 --------------------

@    The molecule is planar.

               A                   B                   C

           3944.4854           1296.6141            975.8401 MHz
            0.131574            0.043250            0.032551 cm-1


@  Nuclear repulsion energy :  412.647786818205 Hartree


  Symmetry Orbitals
  -----------------

  Number of orbitals in each symmetry:         115   91   48   34


  Symmetry  A1 ( 1)

    1     C        1s         1
    2     C        1s         2
    3     C        1s         3
    4     C        1s         4
    5     C        1s         5
    6     C        2pz        8
    7     C        2pz       11
    8     C        2pz       14
    9     C        2pz       17
   10     C        3d0       20
   11     C        3d2+      22
   12     C        3d0       25
   13     C        3d2+      27
   14     C        1s        28 +   29
   15     C        1s        30 +   31
   16     C        1s        32 +   33
   17     C        1s        34 +   35
   18     C        1s        36 +   37
   19     C        2px       38 -   39
   20     C        2pz       42 +   43
   21     C        2px       44 -   45
   22     C        2pz       48 +   49
   23     C        2px       50 -   51
   24     C        2pz       54 +   55
   25     C        2px       56 -   57
   26     C        2pz       60 +   61
   27     C        3d0       66 +   67
   28     C        3d1+      68 -   69
   29     C        3d2+      70 +   71
   30     C        3d0       76 +   77
   31     C        3d1+      78 -   79
   32     C        3d2+      80 +   81
   33     C        1s        82 +   83
   34     C        1s        84 +   85
   35     C        1s        86 +   87
   36     C        1s        88 +   89
   37     C        1s        90 +   91
   38     C        2px       92 -   93
   39     C        2pz       96 +   97
   40     C        2px       98 -   99
   41     C        2pz      102 +  103
   42     C        2px      104 -  105
   43     C        2pz      108 +  109
   44     C        2px      110 -  111
   45     C        2pz      114 +  115
   46     C        3d0      120 +  121
   47     C        3d1+     122 -  123
   48     C        3d2+     124 +  125
   49     C        3d0      130 +  131
   50     C        3d1+     132 -  133
   51     C        3d2+     134 +  135
   52     C        1s       136
   53     C        1s       137
   54     C        1s       138
   55     C        1s       139
   56     C        1s       140
   57     C        2pz      143
   58     C        2pz      146
   59     C        2pz      149
   60     C        2pz      152
   61     C        3d0      155
   62     C        3d2+     157
   63     C        3d0      160
   64     C        3d2+     162
   65     N        1s       163
   66     N        1s       164
   67     N        1s       165
   68     N        1s       166
   69     N        1s       167
   70     N        2pz      170
   71     N        2pz      173
   72     N        2pz      176
   73     N        2pz      179
   74     N        3d0      182
   75     N        3d2+     184
   76     N        3d0      187
   77     N        3d2+     189
   78     O        1s       190 +  191
   79     O        1s       192 +  193
   80     O        1s       194 +  195
   81     O        1s       196 +  197
   82     O        1s       198 +  199
   83     O        2px      200 -  201
   84     O        2pz      204 +  205
   85     O        2px      206 -  207
   86     O        2pz      210 +  211
   87     O        2px      212 -  213
   88     O        2pz      216 +  217
   89     O        2px      218 -  219
   90     O        2pz      222 +  223
   91     O        3d0      228 +  229
   92     O        3d1+     230 -  231
   93     O        3d2+     232 +  233
   94     O        3d0      238 +  239
   95     O        3d1+     240 -  241
   96     O        3d2+     242 +  243
   97     H        1s       244 +  245
   98     H        1s       246 +  247
   99     H        1s       248 +  249
  100     H        2px      250 -  251
  101     H        2pz      254 +  255
  102     H        2px      256 -  257
  103     H        2pz      260 +  261
  104     H        1s       262 +  263
  105     H        1s       264 +  265
  106     H        1s       266 +  267
  107     H        2px      268 -  269
  108     H        2pz      272 +  273
  109     H        2px      274 -  275
  110     H        2pz      278 +  279
  111     H        1s       280
  112     H        1s       281
  113     H        1s       282
  114     H        2pz      285
  115     H        2pz      288


  Symmetry  B1 ( 2)

  116     C        2px        6
  117     C        2px        9
  118     C        2px       12
  119     C        2px       15
  120     C        3d1+      21
  121     C        3d1+      26
  122     C        1s        28 -   29
  123     C        1s        30 -   31
  124     C        1s        32 -   33
  125     C        1s        34 -   35
  126     C        1s        36 -   37
  127     C        2px       38 +   39
  128     C        2pz       42 -   43
  129     C        2px       44 +   45
  130     C        2pz       48 -   49
  131     C        2px       50 +   51
  132     C        2pz       54 -   55
  133     C        2px       56 +   57
  134     C        2pz       60 -   61
  135     C        3d0       66 -   67
  136     C        3d1+      68 +   69
  137     C        3d2+      70 -   71
  138     C        3d0       76 -   77
  139     C        3d1+      78 +   79
  140     C        3d2+      80 -   81
  141     C        1s        82 -   83
  142     C        1s        84 -   85
  143     C        1s        86 -   87
  144     C        1s        88 -   89
  145     C        1s        90 -   91
  146     C        2px       92 +   93
  147     C        2pz       96 -   97
  148     C        2px       98 +   99
  149     C        2pz      102 -  103
  150     C        2px      104 +  105
  151     C        2pz      108 -  109
  152     C        2px      110 +  111
  153     C        2pz      114 -  115
  154     C        3d0      120 -  121
  155     C        3d1+     122 +  123
  156     C        3d2+     124 -  125
  157     C        3d0      130 -  131
  158     C        3d1+     132 +  133
  159     C        3d2+     134 -  135
  160     C        2px      141
  161     C        2px      144
  162     C        2px      147
  163     C        2px      150
  164     C        3d1+     156
  165     C        3d1+     161
  166     N        2px      168
  167     N        2px      171
  168     N        2px      174
  169     N        2px      177
  170     N        3d1+     183
  171     N        3d1+     188
  172     O        1s       190 -  191
  173     O        1s       192 -  193
  174     O        1s       194 -  195
  175     O        1s       196 -  197
  176     O        1s       198 -  199
  177     O        2px      200 +  201
  178     O        2pz      204 -  205
  179     O        2px      206 +  207
  180     O        2pz      210 -  211
  181     O        2px      212 +  213
  182     O        2pz      216 -  217
  183     O        2px      218 +  219
  184     O        2pz      222 -  223
  185     O        3d0      228 -  229
  186     O        3d1+     230 +  231
  187     O        3d2+     232 -  233
  188     O        3d0      238 -  239
  189     O        3d1+     240 +  241
  190     O        3d2+     242 -  243
  191     H        1s       244 -  245
  192     H        1s       246 -  247
  193     H        1s       248 -  249
  194     H        2px      250 +  251
  195     H        2pz      254 -  255
  196     H        2px      256 +  257
  197     H        2pz      260 -  261
  198     H        1s       262 -  263
  199     H        1s       264 -  265
  200     H        1s       266 -  267
  201     H        2px      268 +  269
  202     H        2pz      272 -  273
  203     H        2px      274 +  275
  204     H        2pz      278 -  279
  205     H        2px      283
  206     H        2px      286


  Symmetry  B2 ( 3)

  207     C        2py        7
  208     C        2py       10
  209     C        2py       13
  210     C        2py       16
  211     C        3d1-      19
  212     C        3d1-      24
  213     C        2py       40 +   41
  214     C        2py       46 +   47
  215     C        2py       52 +   53
  216     C        2py       58 +   59
  217     C        3d2-      62 -   63
  218     C        3d1-      64 +   65
  219     C        3d2-      72 -   73
  220     C        3d1-      74 +   75
  221     C        2py       94 +   95
  222     C        2py      100 +  101
  223     C        2py      106 +  107
  224     C        2py      112 +  113
  225     C        3d2-     116 -  117
  226     C        3d1-     118 +  119
  227     C        3d2-     126 -  127
  228     C        3d1-     128 +  129
  229     C        2py      142
  230     C        2py      145
  231     C        2py      148
  232     C        2py      151
  233     C        3d1-     154
  234     C        3d1-     159
  235     N        2py      169
  236     N        2py      172
  237     N        2py      175
  238     N        2py      178
  239     N        3d1-     181
  240     N        3d1-     186
  241     O        2py      202 +  203
  242     O        2py      208 +  209
  243     O        2py      214 +  215
  244     O        2py      220 +  221
  245     O        3d2-     224 -  225
  246     O        3d1-     226 +  227
  247     O        3d2-     234 -  235
  248     O        3d1-     236 +  237
  249     H        2py      252 +  253
  250     H        2py      258 +  259
  251     H        2py      270 +  271
  252     H        2py      276 +  277
  253     H        2py      284
  254     H        2py      287


  Symmetry  A2 ( 4)

  255     C        3d2-      18
  256     C        3d2-      23
  257     C        2py       40 -   41
  258     C        2py       46 -   47
  259     C        2py       52 -   53
  260     C        2py       58 -   59
  261     C        3d2-      62 +   63
  262     C        3d1-      64 -   65
  263     C        3d2-      72 +   73
  264     C        3d1-      74 -   75
  265     C        2py       94 -   95
  266     C        2py      100 -  101
  267     C        2py      106 -  107
  268     C        2py      112 -  113
  269     C        3d2-     116 +  117
  270     C        3d1-     118 -  119
  271     C        3d2-     126 +  127
  272     C        3d1-     128 -  129
  273     C        3d2-     153
  274     C        3d2-     158
  275     N        3d2-     180
  276     N        3d2-     185
  277     O        2py      202 -  203
  278     O        2py      208 -  209
  279     O        2py      214 -  215
  280     O        2py      220 -  221
  281     O        3d2-     224 +  225
  282     O        3d1-     226 -  227
  283     O        3d2-     234 +  235
  284     O        3d1-     236 -  237
  285     H        2py      252 -  253
  286     H        2py      258 -  259
  287     H        2py      270 -  271
  288     H        2py      276 -  277

  Symmetries of electric field:  B1 (2)  B2 (3)  A1 (1)

  Symmetries of magnetic field:  B2 (3)  B1 (2)  A2 (4)


                     .---------------------------------------.
                     | Starting in Integral Section (HERMIT) |
                     `---------------------------------------'



 ***************************************************************************************
 ****************** Output from **INTEGRALS input processing (HERMIT) ******************
 ***************************************************************************************


 - Using defaults, no **INTEGRALS input found

 Default print level:        1

 Calculation of one-electron Hamiltonian integrals.

 Center of mass  (bohr):      0.000000000000      0.000000000000     -0.399149731458
 Operator center (bohr):      0.000000000000      0.000000000000      0.000000000000
 Gauge origin    (bohr):      0.000000000000      0.000000000000      0.000000000000
 Dipole origin   (bohr):      0.000000000000      0.000000000000      0.000000000000


     ************************************************************************
     ************************** Output from HERINT **************************
     ************************************************************************



                      Nuclear contribution to dipole moments
                      --------------------------------------

                 au               Debye          C m (/(10**-30)

      z    -33.34797095       -84.76208203      -282.73587199


  Total CPU  time used in HERMIT:   0.39 seconds
  Total wall time used in HERMIT:   0.40 seconds


                        .----------------------------------.
                        | End of Integral Section (HERMIT) |
                        `----------------------------------'



                   .--------------------------------------------.
                   | Starting in Wave Function Section (SIRIUS) |
                   `--------------------------------------------'


 *** Output from Huckel module :

     Using EWMO model:          F
     Using EHT  model:          T
     Number of Huckel orbitals each symmetry:   24   17    6    3

 Huckel EHT eigenvalues for symmetry :  1
          -20.695293     -15.706037     -11.415011     -11.394605     -11.376753
          -11.362600      -1.749085      -1.553996      -1.193024      -0.939943
           -0.816389      -0.785843      -0.641941      -0.588047      -0.490737
           -0.428482      -0.331103      -0.247534      -0.225981      -0.213747
           -0.205816      -0.178739      -0.166289      -0.160474

 Huckel EHT eigenvalues for symmetry :  2
          -20.701226     -11.396477     -11.377859      -1.406740      -1.202753
           -0.879402      -0.645842      -0.573482      -0.526365      -0.478479
           -0.414733      -0.269053      -0.213148      -0.202811      -0.176231
           -0.165370      -0.163258

 Huckel EHT eigenvalues for symmetry :  3
           -0.800399      -0.671116      -0.465009      -0.384602      -0.281797
           -0.236543

 Huckel EHT eigenvalues for symmetry :  4
           -0.594137      -0.460082      -0.288816

 **********************************************************************
 *SIRIUS* a direct, restricted step, second order MCSCF program       *
 **********************************************************************

 
     Date and time (Linux)  : Wed Feb  5 05:01:30 2020
     Host name              : Lab2-333-NPs                            

 Title lines from ".mol" input file:
      nitrobenzene                                                           
      Generated by the Dalton Input File Plugin for Avogadro                 

 Print level on unit LUPRI =   2 is   0
 Print level on unit LUW4  =   2 is   5

@    MC-SCF optimization.

@    Multi-configurational response calculation.
@              Type: complete active space calculation (CAS).

@    This is a combination run starting with
@              a restricted, closed shell Hartree-Fock calculation
@              an MP2 calculation

 Fock matrices are calculated directly without use of integrals on disk.

 Initial molecular orbitals are obtained according to
 ".MOSTART EHT   " input option

     Wave function specification
     ============================
@    Wave function type        --- MC-SCF ---
@    Number of closed shell electrons          54
@    Number of electrons in active shells      10
@    Total charge of the molecule               0

@    Spin multiplicity and 2 M_S                1         0
@    Total number of symmetries                 4 (point group: C2v)
@    Reference state symmetry                   1 (irrep name : A1 )

     Orbital specifications
     ======================
@    Abelian symmetry species          All |    1    2    3    4
@                                          |  A1   B1   B2   A2 
                                       --- |  ---  ---  ---  ---
@    Inactive orbitals                  27 |   15   10    2    0
@    Active orbitals                     7 |    1    1    2    3
@    Secondary orbitals                254 |   99   80   44   31
@    Total number of orbitals          288 |  115   91   48   34
@    Number of basis functions         288 |  115   91   48   34

      ** Automatic occupation of RHF orbitals **

      -- Initial occupation of symmetries is determined from extended Huckel guess.           
      -- Initial occupation of symmetries is :
@    Occupied SCF orbitals              32 |   16   11    3    2

     Optimization information
     ========================
@    Number of determinants                 115
@    Number of orbital rotations           2762
     ------------------------------------------
@    Total number of variables             2877

     Maximum number of macro iterations      40
     Maximum number of micro iterations     960
     Threshold for MCSCF gradient      1.00D-05
     Number of initial trial vectors          2
     Number of initial CI iterations          3
     Number of simultaneous trial vectors     2

@    This calculation converges to state no.   2 for the specified symmetry and spin species.

     Maximum number of NEO/NR iterations  24

    INFORMATION: Switched to "new" integral transformation (from 1988 ;-) )
    because more than 255 basis functions.


 ***********************************************
 ***** DIIS acceleration of SCF iterations *****
 ***********************************************

 C1-DIIS algorithm; max error vectors =    8

 Automatic occupation of symmetries with  64 electrons.

 Iter     Total energy    Error norm  Delta(E)    SCF occupation
 -----------------------------------------------------------------------------
   1  Screening settings (-IFTHRS, JTDIIS, DIFDEN, times)   -8    1    T  2.61D+01  2.61D+01
@  1  -432.264520201       6.46D+00  -4.32D+02    16  11   3   2
      Virial theorem: -V/T =      1.998665
@    MULPOP   C       0.33; C   _1  0.26; C   _2  0.26; C   _1  0.23; C   _2  0.23; C       0.36; N       1.31; O   _1 -1.02; O   _2 -1.02; H   _1 -0.20; 
@             H   _2 -0.20; H   _1 -0.18; H   _2 -0.18; H      -0.19; 
   1  Level shift: doubly occupied orbital energies shifted by -2.00D-01
 -----------------------------------------------------------------------------
   2  Screening settings (-IFTHRS, JTDIIS, DIFDEN, times)   -8    2    T  2.62D+01  2.62D+01
@  2  -433.845734170       2.91D+00  -1.58D+00    16  11   3   2
      Virial theorem: -V/T =      2.001465
@    MULPOP   C       0.89; C   _1  0.36; C   _2  0.36; C   _1  0.36; C   _2  0.36; C       0.36; N       0.36; O   _1 -0.52; O   _2 -0.52; H   _1 -0.40; 
@             H   _2 -0.40; H   _1 -0.40; H   _2 -0.40; H      -0.40; 
   2  Level shift: doubly occupied orbital energies shifted by -1.00D-01
 -----------------------------------------------------------------------------
   3  Screening settings (-IFTHRS, JTDIIS, DIFDEN, times)   -8    3    T  2.61D+01  2.61D+01
@  3  -434.206303993       7.13D-01  -3.61D-01    16  11   3   2
      Virial theorem: -V/T =      2.000874
@    MULPOP   C       1.62; C   _1  0.26; C   _2  0.26; C   _1  0.44; C   _2  0.44; C       0.29; N       0.69; O   _1 -0.89; O   _2 -0.89; H   _1 -0.46; 
@             H   _2 -0.46; H   _1 -0.44; H   _2 -0.44; H      -0.44; 
   3  Level shift: doubly occupied orbital energies shifted by -2.50D-02
 -----------------------------------------------------------------------------
   4  Screening settings (-IFTHRS, JTDIIS, DIFDEN, times)   -8    4    T  2.60D+01  2.60D+01
@  4  -434.231673219       1.84D-01  -2.54D-02    16  11   3   2
      Virial theorem: -V/T =      2.002645
@    MULPOP   C       1.70; C   _1  0.21; C   _2  0.21; C   _1  0.52; C   _2  0.52; C       0.28; N       0.55; O   _1 -0.85; O   _2 -0.85; H   _1 -0.46; 
@             H   _2 -0.46; H   _1 -0.45; H   _2 -0.45; H      -0.46; 
   4  Level shift: doubly occupied orbital energies shifted by -1.25D-02
 -----------------------------------------------------------------------------
   5  Screening settings (-IFTHRS, JTDIIS, DIFDEN, times)  -10    5    F  2.64D+01  2.64D+01
@  5  -434.234307450       5.49D-02  -2.63D-03    16  11   3   2
      Virial theorem: -V/T =      2.002067
@    MULPOP   C       1.73; C   _1  0.19; C   _2  0.19; C   _1  0.51; C   _2  0.51; C       0.26; N       0.55; O   _1 -0.86; O   _2 -0.86; H   _1 -0.45; 
@             H   _2 -0.45; H   _1 -0.44; H   _2 -0.44; H      -0.44; 
 -----------------------------------------------------------------------------
   6  Screening settings (-IFTHRS, JTDIIS, DIFDEN, times)  -10    6    T  2.62D+01  2.62D+01
@  6  -434.234643871       1.53D-02  -3.36D-04    16  11   3   2
      Virial theorem: -V/T =      2.001990
@    MULPOP   C       1.74; C   _1  0.18; C   _2  0.18; C   _1  0.52; C   _2  0.52; C       0.26; N       0.53; O   _1 -0.86; O   _2 -0.86; H   _1 -0.44; 
@             H   _2 -0.44; H   _1 -0.44; H   _2 -0.44; H      -0.44; 
 -----------------------------------------------------------------------------
   7  Screening settings (-IFTHRS, JTDIIS, DIFDEN, times)  -13    7    F  2.66D+01  2.66D+01
@  7  -434.234676655       6.25D-03  -3.28D-05    16  11   3   2
      Virial theorem: -V/T =      2.002026
@    MULPOP   C       1.75; C   _1  0.18; C   _2  0.18; C   _1  0.51; C   _2  0.51; C       0.26; N       0.53; O   _1 -0.86; O   _2 -0.86; H   _1 -0.44; 
@             H   _2 -0.44; H   _1 -0.44; H   _2 -0.44; H      -0.44; 
 -----------------------------------------------------------------------------
   8  Screening settings (-IFTHRS, JTDIIS, DIFDEN, times)  -13    8    T  2.64D+01  2.64D+01
@  8  -434.234681753       2.13D-03  -5.10D-06    16  11   3   2
      Virial theorem: -V/T =      2.002014
@    MULPOP   C       1.75; C   _1  0.18; C   _2  0.18; C   _1  0.51; C   _2  0.51; C       0.26; N       0.53; O   _1 -0.86; O   _2 -0.86; H   _1 -0.44; 
@             H   _2 -0.44; H   _1 -0.44; H   _2 -0.44; H      -0.44; 
 -----------------------------------------------------------------------------
   9  Screening settings (-IFTHRS, JTDIIS, DIFDEN, times)  -13    9    T  2.64D+01  2.64D+01
@  9  -434.234682311       6.61D-04  -5.58D-07    16  11   3   2
      Virial theorem: -V/T =      2.002011
@    MULPOP   C       1.75; C   _1  0.18; C   _2  0.18; C   _1  0.51; C   _2  0.51; C       0.26; N       0.53; O   _1 -0.86; O   _2 -0.86; H   _1 -0.44; 
@             H   _2 -0.44; H   _1 -0.44; H   _2 -0.44; H      -0.44; 
 -----------------------------------------------------------------------------
  10  Screening settings (-IFTHRS, JTDIIS, DIFDEN, times)  -13   10    T  2.64D+01  2.64D+01
@ 10  -434.234682365       2.17D-04  -5.39D-08    16  11   3   2
      Virial theorem: -V/T =      2.002012
@    MULPOP   C       1.75; C   _1  0.18; C   _2  0.18; C   _1  0.51; C   _2  0.51; C       0.26; N       0.53; O   _1 -0.86; O   _2 -0.86; H   _1 -0.44; 
@             H   _2 -0.44; H   _1 -0.44; H   _2 -0.44; H      -0.44; 
 -----------------------------------------------------------------------------
  11  Screening settings (-IFTHRS, JTDIIS, DIFDEN, times)  -13   11    T  2.64D+01  2.64D+01
@ 11  -434.234682373       8.15D-05  -8.25D-09    16  11   3   2
      Virial theorem: -V/T =      2.002012
@    MULPOP   C       1.75; C   _1  0.18; C   _2  0.18; C   _1  0.51; C   _2  0.51; C       0.26; N       0.53; O   _1 -0.86; O   _2 -0.86; H   _1 -0.44; 
@             H   _2 -0.44; H   _1 -0.44; H   _2 -0.44; H      -0.44; 
 -----------------------------------------------------------------------------
  12  Screening settings (-IFTHRS, JTDIIS, DIFDEN, times)  -13   12    T  2.63D+01  2.63D+01
@ 12  -434.234682374       3.36D-05  -1.38D-09    16  11   3   2
      Virial theorem: -V/T =      2.002012
@    MULPOP   C       1.75; C   _1  0.18; C   _2  0.18; C   _1  0.51; C   _2  0.51; C       0.26; N       0.53; O   _1 -0.86; O   _2 -0.86; H   _1 -0.44; 
@             H   _2 -0.44; H   _1 -0.44; H   _2 -0.44; H      -0.44; 
 -----------------------------------------------------------------------------
  13  Screening settings (-IFTHRS, JTDIIS, DIFDEN, times)  -13   13    T  2.62D+01  2.62D+01
@ 13  -434.234682374       1.88D-05  -2.12D-10    16  11   3   2
      Virial theorem: -V/T =      2.002012
@    MULPOP   C       1.75; C   _1  0.18; C   _2  0.18; C   _1  0.51; C   _2  0.51; C       0.26; N       0.53; O   _1 -0.86; O   _2 -0.86; H   _1 -0.44; 
@             H   _2 -0.44; H   _1 -0.44; H   _2 -0.44; H      -0.44; 
 -----------------------------------------------------------------------------
  14  Screening settings (-IFTHRS, JTDIIS, DIFDEN, times)  -13   14    T  2.62D+01  2.62D+01
@ 14  -434.234682375       6.61D-06  -9.57D-11    16  11   3   2
      Virial theorem: -V/T =      2.002012
@    MULPOP   C       1.75; C   _1  0.18; C   _2  0.18; C   _1  0.51; C   _2  0.51; C       0.26; N       0.53; O   _1 -0.86; O   _2 -0.86; H   _1 -0.44; 
@             H   _2 -0.44; H   _1 -0.44; H   _2 -0.44; H      -0.44; 
 -----------------------------------------------------------------------------
  15  Screening settings (-IFTHRS, JTDIIS, DIFDEN, times)  -13   15    T  2.62D+01  2.62D+01
@ 15  -434.234682375       2.79D-06  -1.84D-11    16  11   3   2
      Virial theorem: -V/T =      2.002012
@    MULPOP   C       1.75; C   _1  0.18; C   _2  0.18; C   _1  0.51; C   _2  0.51; C       0.26; N       0.53; O   _1 -0.86; O   _2 -0.86; H   _1 -0.44; 
@             H   _2 -0.44; H   _1 -0.44; H   _2 -0.44; H      -0.44; 
 -----------------------------------------------------------------------------
  16  Screening settings (-IFTHRS, JTDIIS, DIFDEN, times)  -13   16    T  2.61D+01  2.61D+01
@ 16  -434.234682375       1.26D-06  -5.68D-13    16  11   3   2
      Virial theorem: -V/T =      2.002012
@    MULPOP   C       1.75; C   _1  0.18; C   _2  0.18; C   _1  0.51; C   _2  0.51; C       0.26; N       0.53; O   _1 -0.86; O   _2 -0.86; H   _1 -0.44; 
@             H   _2 -0.44; H   _1 -0.44; H   _2 -0.44; H      -0.44; 
 -----------------------------------------------------------------------------
  17  Screening settings (-IFTHRS, JTDIIS, DIFDEN, times)  -13   17    T  2.60D+01  2.60D+01
@ 17  -434.234682375       5.08D-07   2.05D-12    16  11   3   2

@ *** DIIS converged in  17 iterations !
@     Converged SCF energy, gradient:   -434.234682374562    5.08D-07
    - total time used in SIRFCK :              0.00 seconds

 --- Writing SIRIFC interface file

 CPU and wall time for SCF :     446.844     446.973


 ----- Output from SIRIUS MP2 module -----

 Reference: H.J.Aa.Jensen, P.Jorgensen, H.Agren, and J.Olsen,
            J. Chem. Phys. 88, 3834 (1988); 89, 5354 (1988)

 Checking that the closed shell orbitals are canonical Hartree-Fock orbitals

    Number of electrons  :   64
    Closed shell orbitals:   16   11    3    2

 Generating Fock matrix

 Hartree-Fock electronic energy:        -846.882469192768
 Hartree-Fock total      energy:        -434.234682374564

 Hartree-Fock orbital energies, symmetry 1 ( A1 ),   16 occupied SCF orbitals

       -20.61789564   -15.86432265   -11.31742106   -11.28240210   -11.28019740
       -11.27281579    -1.61194226    -1.20033316    -1.09238126    -0.96198927
        -0.83402477    -0.78443674    -0.70867492    -0.65127018    -0.55518732
        -0.49362047     0.02710478     0.04428395     0.06226659     0.10485043
         0.13087800     0.13514885     0.15159730     0.15646219     0.17314005
         0.17996726     0.21577784     0.25878479     0.28722091     0.30204695
         0.30995595     0.33892191     0.35166971     0.35496707     0.37036465
         0.39526869     0.41251765     0.43608895     0.46070872     0.48596791
         0.50887906     0.56057614     0.57934879     0.58473182     0.63115583
         0.65103597     0.66018343     0.67827063     0.72416804     0.73226083
         0.74317810     0.83833319     0.88146323     0.92686073     0.95925735
         0.96517553     1.00850461     1.05333474     1.08109229     1.13860532
         1.28087057     1.36349682     1.37776130     1.44661384     1.49298239
         1.51685817     1.55350117     1.57192685     1.59700970     1.61722325
         1.68084626     1.72274465     1.74716641     1.76723498     1.86874230
         1.94125891     1.95843229     2.00718745     2.01748034     2.12320026
         2.15145830     2.23701628     2.31464694     2.36595989     2.42191926
         2.44869661     2.55747999     2.70760769     2.77648443     2.84350330
         2.88282581     2.97522181     3.03952701     3.15630567     3.27458538
         3.43394640     3.76611673     3.94990999     4.09145379     4.25733100
        19.80131938    20.33751422    20.45524202    20.62221571    23.35491585
        23.37449417    23.42805011    23.81693599    23.91481326    24.12428204
        27.08989488    31.25026098    35.81070349    39.70861479    39.88462537

 Hartree-Fock orbital energies, symmetry 2 ( B1 ),   11 occupied SCF orbitals

       -20.61794450   -11.28244096   -11.27292350    -1.41273236    -1.05440260
        -0.86648578    -0.73446831    -0.65785501    -0.62538061    -0.53110908
        -0.50161597     0.03635172     0.05991278     0.13047085     0.13377101
         0.15384550     0.17383488     0.18398534     0.21447294     0.26201298
         0.28967033     0.31428559     0.33363294     0.36304749     0.37060495
         0.39485425     0.42267311     0.43836450     0.47620981     0.56873658
         0.58021385     0.59319366     0.65018047     0.67332964     0.68106306
         0.70283250     0.75494383     0.76228335     0.83013365     0.84334132
         0.86663998     0.93440656     1.01440912     1.14086479     1.20677359
         1.25252082     1.30850287     1.41005805     1.42411961     1.48724836
         1.56912802     1.59313166     1.60348192     1.63831198     1.70774121
         1.76122113     1.77244867     1.79012704     1.89132479     1.93108057
         1.99587375     2.08638922     2.22947912     2.25882703     2.33767001
         2.34857565     2.38918585     2.53761344     2.57180179     2.77238396
         2.89969574     2.93319434     3.08779991     3.27288431     3.32720061
         3.41323521     3.75498313     3.85686050     4.22302199    20.30561688
        20.48546922    22.91144301    23.34434340    23.39408157    23.93962660
        24.12264155    24.31026963    31.44903116    35.53819036    39.63432386
        40.00659224

 Hartree-Fock orbital energies, symmetry 3 ( B2 ),    3 occupied SCF orbitals

        -0.72178048    -0.53603442    -0.37655921     0.03546495     0.10753429
         0.12572439     0.13972588     0.18446071     0.19317749     0.24391962
         0.32126050     0.34323991     0.37240408     0.44479920     0.53390295
         0.58859314     0.64403618     0.71337468     0.79047020     0.83792717
         0.87331408     0.92279769     0.92777523     0.98525485     1.14680292
         1.28763399     1.30310255     1.47135361     1.47411176     1.61793936
         1.67431216     1.70937811     1.84727736     1.89786634     1.97131835
         2.08345237     2.17998304     2.29628138     2.53637699     2.67813284
         3.67328315     3.77096419    22.54534669    22.69245799    22.82950486
        23.02800841    30.55249931    39.41836353

 Hartree-Fock orbital energies, symmetry 4 ( A2 ),    2 occupied SCF orbitals

        -0.46109437    -0.36838902     0.08689655     0.13191392     0.18636691
         0.29716595     0.41403678     0.49119157     0.54946132     0.66295838
         0.73708154     0.89645581     0.90320303     0.94598009     1.03443846
         1.09317704     1.21338633     1.23910341     1.33123383     1.49096729
         1.67360858     1.69020742     1.86208610     2.01095404     2.11869548
         2.21503776     2.35651331     2.46632870     2.60737101     3.66452537
         4.00847745    22.69380133    22.86060012    39.49847210

    E(LUMO) :     0.02710478   (in symmetry 1)
  - E(HOMO) :    -0.36838902   (in symmetry 4)
  --------------------------
    gap     :     0.39549380

---> (Re)generating AOTWOINT


     ************************************************************************
     ************************** Output from HERINT **************************
     ************************************************************************


 Threshold for neglecting two-electron integrals:  1.00D-12
 HERMIT - Number of two-electron integrals written:   203725702 ( 23.5% )
 HERMIT - Megabytes written:                           3109.904

  Time used in TWOINT     is      36.36 seconds

 2-el. integral transformation level 5: Total CPU and WALL times (sec)     386.094     388.258

 MP2 move   0.994713 electrons to unoccupied HF orbitals


@   Hartree-Fock total energy   :          -434.2346823746
@   + MP2 contribution          :            -1.7266713221
@   = MP2 second order energy   :          -435.9613536967

 Natural orbital occupation numbers, symmetry 1 (irrep A1 )
 Sum =    32.00802585; RHF =    32.00000000; Difference =     0.00802585

         1.99928995     1.99907557     1.99876146     1.99875656     1.99875182
         1.99874785     1.98687611     1.98411342     1.97942397     1.97231408
         1.96891559     1.96827174     1.96522746     1.96213396     1.95511297
         1.94578138     0.04353823     0.03586197     0.02553273     0.02382992
         0.01918555     0.01854474     0.01735962     0.01648478     0.01380121
         0.01266631     0.01158467     0.00983182     0.00854040     0.00788173
         0.00734955     0.00668331     0.00559550     0.00453898     0.00306965
         0.00294426     0.00268982     0.00260904     0.00221174     0.00202235
         0.00184707     0.00167206     0.00161805     0.00131519     0.00121355
         0.00116120     0.00105987     0.00096386     0.00071743     0.00065308
         0.00061275     0.00053370     0.00049999     0.00046630     0.00043869
         0.00041706     0.00040169     0.00038686     0.00037614     0.00034958
         0.00034112     0.00032300     0.00031128     0.00028918     0.00026761
         0.00026069     0.00022467     0.00021358     0.00020383     0.00019593
         0.00018663     0.00018592     0.00017627     0.00017069     0.00016701
         0.00016148     0.00015565     0.00014931     0.00014055     0.00013335
         0.00012593     0.00012343     0.00012201     0.00011067     0.00010523
         0.00009368     0.00007808     0.00007154     0.00005784     0.00005389
         0.00005127     0.00003853     0.00003459     0.00002842     0.00002006
         0.00001795     0.00001446     0.00001292     0.00001150     0.00000936
         0.00000879     0.00000850     0.00000700     0.00000310     0.00000294
         0.00000201     0.00000102     0.00000056     0.00000036     0.00000018
         0.00000016     0.00000001    -0.00000010    -0.00000052    -0.00006315

 Natural orbital occupation numbers, symmetry 2 (irrep B1 )
 Sum =    21.95335940; RHF =    22.00000000; Difference =    -0.04664060

         1.99928984     1.99875719     1.99875083     1.98421738     1.98002025
         1.97273235     1.96268941     1.96058595     1.95478949     1.95425747
         1.94618397     0.03766262     0.02541285     0.02379325     0.01900905
         0.01660821     0.01595496     0.01522664     0.01125162     0.01054746
         0.00912299     0.00770625     0.00582398     0.00540116     0.00514779
         0.00407336     0.00313010     0.00271453     0.00239186     0.00213023
         0.00171493     0.00162451     0.00151993     0.00132040     0.00118533
         0.00102421     0.00097214     0.00069923     0.00064192     0.00056995
         0.00049336     0.00044078     0.00042359     0.00037336     0.00035398
         0.00033897     0.00030860     0.00029368     0.00027045     0.00025826
         0.00023865     0.00021155     0.00019831     0.00018760     0.00018266
         0.00017801     0.00017053     0.00016939     0.00016026     0.00015367
         0.00014415     0.00013386     0.00012922     0.00012599     0.00011901
         0.00011285     0.00009471     0.00008905     0.00006807     0.00005588
         0.00004613     0.00003730     0.00003084     0.00002915     0.00002375
         0.00001511     0.00001432     0.00001145     0.00001058     0.00000868
         0.00000471     0.00000354     0.00000182     0.00000124     0.00000058
         0.00000028     0.00000014    -0.00000004    -0.00000019    -0.00000067
        -0.00001339

 Natural orbital occupation numbers, symmetry 3 (irrep B2 )
 Sum =     6.07742628; RHF =     6.00000000; Difference =     0.07742628

         1.95066375     1.94434670     1.90902896     0.10129581     0.06753585
         0.02963398     0.01052102     0.01032563     0.00873518     0.00790168
         0.00615503     0.00526394     0.00446751     0.00387236     0.00342743
         0.00307568     0.00153985     0.00144694     0.00099589     0.00089175
         0.00086852     0.00066296     0.00059734     0.00049379     0.00047306
         0.00041898     0.00033458     0.00029076     0.00024807     0.00022907
         0.00019676     0.00019585     0.00018988     0.00017622     0.00015398
         0.00013002     0.00012105     0.00011159     0.00010117     0.00008346
         0.00008081     0.00006259     0.00003621     0.00002015     0.00001050
         0.00000753     0.00000521     0.00000122

 Natural orbital occupation numbers, symmetry 4 (irrep A2 )
 Sum =     3.96118847; RHF =     4.00000000; Difference =    -0.03881153

         1.91633757     1.90852224     0.06664415     0.01451106     0.01041816
         0.00929833     0.00793047     0.00571207     0.00516722     0.00406725
         0.00357440     0.00152525     0.00118861     0.00093681     0.00077979
         0.00072909     0.00067550     0.00056501     0.00040797     0.00037099
         0.00033915     0.00029868     0.00021622     0.00019700     0.00016433
         0.00013357     0.00011672     0.00010337     0.00009364     0.00006957
         0.00005033     0.00002072     0.00001768     0.00000554

 Time used for MP2 natural orbitals :     415.859 CPU seconds,     418.032 wall seconds.

 CPU and wall time for MP2 :     415.859     418.032


        SIRIUS MCSCF optimization (SIROPT)
 ================================================


 Fock matrix screening setting for SIRCNO: IFTHRS =    9


 ----- Output from SIRIUS CI module (CICTL) -----




 2-el. integral transformation level 0: Total CPU and WALL times (sec)      93.984      94.026


 --- SIRCI.CIST1: plus combination of all degenerate
                 configurations is used as start vectors.


 (CIST1) 18 lowest diagonal elements:

 Element no. Config.no.    Active energy      Total energy

         1 :         67    -17.3331529520   -434.2160440350
         2 :         69    -17.0418078820   -433.9246989650
         3 :         81    -17.0418078820   -433.9246989650
         4 :         68    -16.9910588429   -433.8739499259
         5 :         74    -16.9910588429   -433.8739499259
         6 :         78    -16.8818025057   -433.7646935887
         7 :         96    -16.8818025057   -433.7646935887
         8 :         71    -16.8344218988   -433.7173129818
         9 :         95    -16.8344218988   -433.7173129818
        10 :         54    -16.7478226734   -433.6307137563
        11 :         63    -16.7478226734   -433.6307137563
        12 :         83    -16.7359743607   -433.6188654436
        13 :         76    -16.7117082772   -433.5945993602
        14 :         82    -16.7117082772   -433.5945993602
        15 :         58    -16.6915580572   -433.5744491402
        16 :         64    -16.6915580572   -433.5744491402
        17 :         72    -16.6847561047   -433.5676471876
        18 :        102    -16.6847561047   -433.5676471876


 Convergence threshold for CI optimization :     0.00000500



 *** Reached maximum number of CI iterations:    3
              1 CI roots are not converged.


@ Final CI energies and residuals in symmetry 1 (irrep A1 )
@    1     -434.263707441942927       4.08D-02
@    2     -433.901204302318490       5.84D-03
@    3     -433.871710229046244       1.63D-02
@    4     -433.821253075032416       5.27D-02
@    5     -433.661351806775031       9.07D-02
@    6     -433.633209271649491       7.48D-02

   --- OUTPUT FROM SIRCNO     Keyword = FD+NO 


 Occupations of CAS natural orbitals:

 Symmetry  1 ( irrep A1  in C2v )

   1.999887969

 Symmetry  2 ( irrep B1  in C2v )

   1.999946738

 Symmetry  3 ( irrep B2  in C2v )

   1.386763167   0.651036105

 Symmetry  4 ( irrep A2  in C2v )

   1.952459681   1.594394505   0.415511835


 --- MACRO ITERATION  1 ---
 --------------------------

 2-el. integral transformation level 3: Total CPU and WALL times (sec)      95.438      95.440

 Fock matrix screening setting for this macro iteration: 10^( -9)

 Total MCSCF energy       :          -433.901204304256169  (MACRO    1)

 - Nuclear repulsion      :           412.647786818204793
 - Inactive energy        :          -829.530677901645731
 - Active energy          :           -17.018313220815212

 Norm of total gradient   :             0.904302100442
 -    of CI gradient      :             0.011686701355
 -    of orbital gradient :             0.904226581049
      Virial theorem: -V/T =      1.996580
@    MULPOP   C       1.60; C   _1  0.36; C   _2  0.36; C   _1  0.52; C   _2  0.52; C       0.47; N       0.20; O   _1 -0.81; O   _2 -0.81; H   _1 -0.49; 
@             H   _2 -0.49; H   _1 -0.47; H   _2 -0.47; H      -0.47; 

 Residual norm when dim(red L) =   9
 NEO root     CSF        orbital          total
    2     0.15195412     0.05515166     0.16165321 converged

 (NEONEX) NEO vector is converged.

   --- OUTPUT FROM SIRCNO     Keyword = FD+NO 


 Occupations of CAS natural orbitals:

 Symmetry  1 ( irrep A1  in C2v )

   1.999892824

 Symmetry  2 ( irrep B1  in C2v )

   1.999944331

 Symmetry  3 ( irrep B2  in C2v )

   1.387362253   0.651793231

 Symmetry  4 ( irrep A2  in C2v )

   1.950941648   1.592515597   0.417550117


 --- MACRO ITERATION  2 ---
 --------------------------

 2-el. integral transformation level 3: Total CPU and WALL times (sec)      95.625      95.622

 Fock matrix screening setting for this macro iteration: 10^( -9)

 Total MCSCF energy       :          -434.017972476094258  (MACRO    2)

 - Nuclear repulsion      :           412.647786818204793
 - Inactive energy        :          -829.423183259342068
 - Active energy          :           -17.242576034957008

 Norm of total gradient   :             0.164091499612
 -    of CI gradient      :             0.113366806778
 -    of orbital gradient :             0.118633837356
      Virial theorem: -V/T =      2.001219
@    MULPOP   C       1.80; C   _1  0.21; C   _2  0.21; C   _1  0.51; C   _2  0.51; C       0.27; N       0.57; O   _1 -0.94; O   _2 -0.94; H   _1 -0.45; 
@             H   _2 -0.45; H   _1 -0.43; H   _2 -0.43; H      -0.42; 

 Residual norm when dim(red L) =  10
 NEO root     CSF        orbital          total
    1     0.03976265     0.06695623     0.07787300 converged

 (NEONEX) NEO auxiliary root no.  1 is converged.

 Residual norm when dim(red L) =  14
 NEO root     CSF        orbital          total
    2     0.02330482     0.01308600     0.02672748 converged

 (NEONEX) NEO vector is converged.

   --- OUTPUT FROM SIRCNO     Keyword = FD+NO 


 Occupations of CAS natural orbitals:

 Symmetry  1 ( irrep A1  in C2v )

   1.999777955

 Symmetry  2 ( irrep B1  in C2v )

   1.999989232

 Symmetry  3 ( irrep B2  in C2v )

   1.261029784   0.781226559

 Symmetry  4 ( irrep A2  in C2v )

   1.948139958   1.970559459   0.039277053


 --- MACRO ITERATION  3 ---
 --------------------------

 2-el. integral transformation level 3: Total CPU and WALL times (sec)      95.734      95.748

 Fock matrix screening setting for this macro iteration: 10^( -9)

 Total MCSCF energy       :          -434.052049582886525  (MACRO    3)

 - Nuclear repulsion      :           412.647786818204793
 - Inactive energy        :          -829.229398653705175
 - Active energy          :           -17.470437747386129

 Norm of total gradient   :             0.186058011741
 -    of CI gradient      :             0.051581961345
 -    of orbital gradient :             0.178764887483
      Virial theorem: -V/T =      2.000880
@    MULPOP   C       1.67; C   _1  0.29; C   _2  0.29; C   _1  0.57; C   _2  0.57; C       0.21; N       0.52; O   _1 -1.02; O   _2 -1.02; H   _1 -0.44; 
@             H   _2 -0.44; H   _1 -0.41; H   _2 -0.41; H      -0.40; 

 Residual norm when dim(red L) =  11
 NEO root     CSF        orbital          total
    1     0.04415699     0.03536195     0.05657126 converged

 (NEONEX) NEO auxiliary root no.  1 is converged.

 Residual norm when dim(red L) =  13
 NEO root     CSF        orbital          total
    2     0.01895436     0.00842656     0.02074306 converged

 (NEONEX) NEO vector is converged.

   --- OUTPUT FROM SIRCNO     Keyword = FD+NO 


 Occupations of CAS natural orbitals:

 Symmetry  1 ( irrep A1  in C2v )

   1.999817269

 Symmetry  2 ( irrep B1  in C2v )

   1.999988477

 Symmetry  3 ( irrep B2  in C2v )

   1.276625385   0.761261248

 Symmetry  4 ( irrep A2  in C2v )

   1.927646728   1.957150184   0.077510708


 --- MACRO ITERATION  4 ---
 --------------------------

 2-el. integral transformation level 3: Total CPU and WALL times (sec)      96.016      96.016

 Fock matrix screening setting for this macro iteration: 10^( -9)

 Total MCSCF energy       :          -434.056906370029765  (MACRO    4)

 - Nuclear repulsion      :           412.647786818204793
 - Inactive energy        :          -829.194255210558140
 - Active energy          :           -17.510437977676421

 Norm of total gradient   :             0.074667512412
 -    of CI gradient      :             0.071068397383
 -    of orbital gradient :             0.022902408240
      Virial theorem: -V/T =      2.000389
@    MULPOP   C       1.78; C   _1  0.24; C   _2  0.24; C   _1  0.58; C   _2  0.58; C       0.26; N       0.51; O   _1 -1.04; O   _2 -1.04; H   _1 -0.43; 
@             H   _2 -0.43; H   _1 -0.41; H   _2 -0.41; H      -0.40; 

 Residual norm when dim(red L) =   8
 NEO root     CSF        orbital          total
    1     0.05762233     0.06268871     0.08514815 converged

 (NEONEX) NEO auxiliary root no.  1 is converged.

 Residual norm when dim(red L) =  12
 NEO root     CSF        orbital          total
    2     0.00914123     0.00592632     0.01089419 converged

 (NEONEX) NEO vector is converged.

   --- OUTPUT FROM SIRCNO     Keyword = FD+NO 


 Occupations of CAS natural orbitals:

 Symmetry  1 ( irrep A1  in C2v )

   1.999444604

 Symmetry  2 ( irrep B1  in C2v )

   1.999993607

 Symmetry  3 ( irrep B2  in C2v )

   1.276332296   0.765668639

 Symmetry  4 ( irrep A2  in C2v )

   1.951740999   1.966232869   0.040586986


 --- MACRO ITERATION  5 ---
 --------------------------

 2-el. integral transformation level 3: Total CPU and WALL times (sec)      96.031      96.090

 Fock matrix screening setting for this macro iteration: 10^( -9)

 Total MCSCF energy       :          -434.059653117299831  (MACRO    5)

 - Nuclear repulsion      :           412.647786818204793
 - Inactive energy        :          -828.979226375062012
 - Active energy          :           -17.728213560442601

 Norm of total gradient   :             0.012197919627
 -    of CI gradient      :             0.009675496287
 -    of orbital gradient :             0.007427921299
      Virial theorem: -V/T =      2.000432
@    MULPOP   C       1.77; C   _1  0.24; C   _2  0.24; C   _1  0.59; C   _2  0.59; C       0.25; N       0.51; O   _1 -1.05; O   _2 -1.05; H   _1 -0.43; 
@             H   _2 -0.43; H   _1 -0.41; H   _2 -0.41; H      -0.40; 

 Residual norm when dim(red L) =   8
 NEO root     CSF        orbital          total
    1     0.05916246     0.06358262     0.08685014 converged

 (NEONEX) NEO auxiliary root no.  1 is converged.

 Residual norm when dim(red L) =  25
 NEO root     CSF        orbital          total
    2     0.00173673     0.00066708     0.00186044 converged

 (NEONEX) NEO vector is converged.

   --- OUTPUT FROM SIRCNO     Keyword = FD+NO 


 Occupations of CAS natural orbitals:

 Symmetry  1 ( irrep A1  in C2v )

   1.999218364

 Symmetry  2 ( irrep B1  in C2v )

   1.999998997

 Symmetry  3 ( irrep B2  in C2v )

   1.244309557   0.805231412

 Symmetry  4 ( irrep A2  in C2v )

   1.946323451   1.959298844   0.045619376


 --- MACRO ITERATION  6 ---
 --------------------------

 2-el. integral transformation level 3: Total CPU and WALL times (sec)      95.734      95.794

 Fock matrix screening setting for this macro iteration: 10^( -9)

 Total MCSCF energy       :          -434.059434866922800  (MACRO    6)

 - Nuclear repulsion      :           412.647786818204793
 - Inactive energy        :          -828.487324489554567
 - Active energy          :           -18.219897195573029

 Norm of total gradient   :             0.032011970146
 -    of CI gradient      :             0.013016452686
 -    of orbital gradient :             0.029246165426
      Virial theorem: -V/T =      2.000358
@    MULPOP   C       1.78; C   _1  0.23; C   _2  0.23; C   _1  0.60; C   _2  0.60; C       0.24; N       0.51; O   _1 -1.05; O   _2 -1.05; H   _1 -0.42; 
@             H   _2 -0.42; H   _1 -0.42; H   _2 -0.42; H      -0.41; 

 (SIRSTP) Energy difference;
 actual, predicted and ratio:   0.000218250377031  -0.000852546676274   -0.255998

 (SIRSTP) step is too large -- backstep

   --- OUTPUT FROM SIRCNO     Keyword = FD+NO 


 Occupations of CAS natural orbitals:

 Symmetry  1 ( irrep A1  in C2v )

   1.999325756

 Symmetry  2 ( irrep B1  in C2v )

   1.999999085

 Symmetry  3 ( irrep B2  in C2v )

   1.250722456   0.797392636

 Symmetry  4 ( irrep A2  in C2v )

   1.947675387   1.962052216   0.042832464


 Optimization control: Step was too large, we backstep


 --- MACRO ITERATION  6 BACKSTEP NO.  1 ---

 2-el. integral transformation level 3: Total CPU and WALL times (sec)      95.469      95.508

 Fock matrix screening setting for this macro iteration: 10^( -9)

 Total MCSCF energy       :          -434.059903889783243  (MACRO    6)

 - Nuclear repulsion      :           412.647786818204793
 - Inactive energy        :          -828.634988001144166
 - Active energy          :           -18.072702706843874

 Norm of total gradient   :             0.020847592302
 -    of CI gradient      :             0.008564966368
 -    of orbital gradient :             0.019006931786
      Virial theorem: -V/T =      2.000380
@    MULPOP   C       1.79; C   _1  0.24; C   _2  0.24; C   _1  0.60; C   _2  0.60; C       0.24; N       0.51; O   _1 -1.05; O   _2 -1.05; H   _1 -0.42; 
@             H   _2 -0.42; H   _1 -0.42; H   _2 -0.42; H      -0.41; 

 (SIRSTP) Energy difference;
 actual, predicted and ratio:  -0.000250772483412  -0.000753071657640    0.332999

 (SIRSTP) step is too large -- backstep

   --- OUTPUT FROM SIRCNO     Keyword = FD+NO 


 Occupations of CAS natural orbitals:

 Symmetry  1 ( irrep A1  in C2v )

   1.999399016

 Symmetry  2 ( irrep B1  in C2v )

   1.999998943

 Symmetry  3 ( irrep B2  in C2v )

   1.258964764   0.787196559

 Symmetry  4 ( irrep A2  in C2v )

   1.949342989   1.964676405   0.040421324


 Optimization control: Step was too large, we backstep


 --- MACRO ITERATION  6 BACKSTEP NO.  2 ---

 2-el. integral transformation level 3: Total CPU and WALL times (sec)      95.422      95.460

 Fock matrix screening setting for this macro iteration: 10^( -9)

 Total MCSCF energy       :          -434.060141310884035  (MACRO    6)

 - Nuclear repulsion      :           412.647786818204793
 - Inactive energy        :          -828.762395683293903
 - Active energy          :           -17.945532445794907

 Norm of total gradient   :             0.010246886577
 -    of CI gradient      :             0.004620353872
 -    of orbital gradient :             0.009146092861
      Virial theorem: -V/T =      2.000404
@    MULPOP   C       1.78; C   _1  0.24; C   _2  0.24; C   _1  0.59; C   _2  0.59; C       0.24; N       0.51; O   _1 -1.05; O   _2 -1.05; H   _1 -0.43; 
@             H   _2 -0.43; H   _1 -0.42; H   _2 -0.42; H      -0.41; 

 Residual norm when dim(red L) =   8
 NEO root     CSF        orbital          total
    1     0.06735913     0.07258215     0.09902233 converged

 (NEONEX) NEO auxiliary root no.  1 is converged.

 Residual norm when dim(red L) =  12
 NEO root     CSF        orbital          total
    2     0.00127113     0.00063217     0.00141965 converged

 (NEONEX) NEO vector is converged.

   --- OUTPUT FROM SIRCNO     Keyword = FD+NO 


 Occupations of CAS natural orbitals:

 Symmetry  1 ( irrep A1  in C2v )

   1.999313137

 Symmetry  2 ( irrep B1  in C2v )

   1.999998453

 Symmetry  3 ( irrep B2  in C2v )

   1.262956051   0.781535826

 Symmetry  4 ( irrep A2  in C2v )

   1.950626093   1.963954512   0.041615928


 --- MACRO ITERATION  7 ---
 --------------------------

 2-el. integral transformation level 3: Total CPU and WALL times (sec)      95.422      95.455

 Fock matrix screening setting for this macro iteration: 10^( -9)

 Total MCSCF energy       :          -434.060244773407703  (MACRO    7)

 - Nuclear repulsion      :           412.647786818204793
 - Inactive energy        :          -828.604297959586802
 - Active energy          :           -18.103733632025666

 Norm of total gradient   :             0.001925498975
 -    of CI gradient      :             0.001768883741
 -    of orbital gradient :             0.000760655385
      Virial theorem: -V/T =      2.000415
@    MULPOP   C       1.79; C   _1  0.23; C   _2  0.23; C   _1  0.59; C   _2  0.59; C       0.24; N       0.51; O   _1 -1.05; O   _2 -1.05; H   _1 -0.43; 
@             H   _2 -0.43; H   _1 -0.42; H   _2 -0.42; H      -0.41; 

 Residual norm when dim(red L) =   8
 NEO root     CSF        orbital          total
    1     0.06441035     0.07226730     0.09680525 converged

 (NEONEX) NEO auxiliary root no.  1 is converged.

 Residual norm when dim(red L) =  17
 NEO root     CSF        orbital          total
    2     0.00025220     0.00012677     0.00028227 converged

 (NEONEX) NEO vector is converged.

   --- OUTPUT FROM SIRCNO     Keyword = FD+NO 


 Occupations of CAS natural orbitals:

 Symmetry  1 ( irrep A1  in C2v )

   1.999290297

 Symmetry  2 ( irrep B1  in C2v )

   1.999997681

 Symmetry  3 ( irrep B2  in C2v )

   1.263353525   0.780935005

 Symmetry  4 ( irrep A2  in C2v )

   1.950794196   1.963990420   0.041638876


 --- MACRO ITERATION  8 ---
 --------------------------

 2-el. integral transformation level 3: Total CPU and WALL times (sec)      95.844      95.863

 Fock matrix screening setting for this macro iteration: 10^( -9)

 Total MCSCF energy       :          -434.060295035730974  (MACRO    8)

 - Nuclear repulsion      :           412.647786818204793
 - Inactive energy        :          -828.478774365188201
[...]
      ----------------------------------------------------------------
         1    1.11040D+01  8.81D+00  6.76D+00  4.95D+02    1.16800D-01

 ** RSPCTL MICROITERATION NUMBER    9

 *** INFO, negative eigenvalues in reduced matrix. Symmetry  1,  triplet       F Dimension of reduced matrix =    20

 GP * SOLUTION vector at frequency     0.11680 a.u.
 after   10 linear transformations is      2.26925761D+04
 INERTIA (POS,ZER,NEG) of reduced matrix is   18    0    2
 Determinant of reduced matrix is  5.12 * 10 **-12.0

       No.  Residual tot.,    conf., and orb.    Bnorm      Frequency 
      ----------------------------------------------------------------
         1    1.03566D+01  5.83D+00  8.56D+00  4.96D+02    1.16800D-01

 ** RSPCTL MICROITERATION NUMBER   10

 *** INFO, negative eigenvalues in reduced matrix. Symmetry  1,  triplet       F Dimension of reduced matrix =    22

 GP * SOLUTION vector at frequency     0.11680 a.u.
 after   11 linear transformations is      2.29296510D+04
 INERTIA (POS,ZER,NEG) of reduced matrix is   20    0    2
 Determinant of reduced matrix is  2.60 * 10 **-14.0

       No.  Residual tot.,    conf., and orb.    Bnorm      Frequency 
      ----------------------------------------------------------------
         1    2.00699D+01  7.03D+00  1.88D+01  5.38D+02    1.16800D-01

 ** RSPCTL MICROITERATION NUMBER   11

 *** INFO, negative eigenvalues in reduced matrix. Symmetry  1,  triplet       F Dimension of reduced matrix =    24

 GP * SOLUTION vector at frequency     0.11680 a.u.
 after   12 linear transformations is     -7.73918362D+04
 INERTIA (POS,ZER,NEG) of reduced matrix is   21    0    3
 Determinant of reduced matrix is -2.98 * 10 **-19.0

       No.  Residual tot.,    conf., and orb.    Bnorm      Frequency 
      ----------------------------------------------------------------
         1    5.00999D+03  3.00D+03  4.01D+03  5.92D+04    1.16800D-01

 ** RSPCTL MICROITERATION NUMBER   12

 *** INFO, negative eigenvalues in reduced matrix. Symmetry  1,  triplet       F Dimension of reduced matrix =    26

 GP * SOLUTION vector at frequency     0.11680 a.u.
 after   13 linear transformations is      2.19646760D+04
 INERTIA (POS,ZER,NEG) of reduced matrix is   23    0    3
 Determinant of reduced matrix is -7.01 * 10 **-20.0

       No.  Residual tot.,    conf., and orb.    Bnorm      Frequency 
      ----------------------------------------------------------------
         1    3.12402D+01  2.54D+01  1.81D+01  6.37D+02    1.16800D-01

 ** RSPCTL MICROITERATION NUMBER   13

 *** INFO, negative eigenvalues in reduced matrix. Symmetry  1,  triplet       F Dimension of reduced matrix =    28

 GP * SOLUTION vector at frequency     0.11680 a.u.
 after   14 linear transformations is      2.24552467D+04
 INERTIA (POS,ZER,NEG) of reduced matrix is   25    0    3
 Determinant of reduced matrix is -1.88 * 10 **-20.0

       No.  Residual tot.,    conf., and orb.    Bnorm      Frequency 
      ----------------------------------------------------------------
         1    1.28264D+01  8.57D+00  9.54D+00  5.09D+02    1.16800D-01

 ** RSPCTL MICROITERATION NUMBER   14

 *** INFO, negative eigenvalues in reduced matrix. Symmetry  1,  triplet       F Dimension of reduced matrix =    30

 GP * SOLUTION vector at frequency     0.11680 a.u.
 after   15 linear transformations is      2.25270962D+04
 INERTIA (POS,ZER,NEG) of reduced matrix is   27    0    3
 Determinant of reduced matrix is -6.76 * 10 **-23.0

       No.  Residual tot.,    conf., and orb.    Bnorm      Frequency 
      ----------------------------------------------------------------
         1    9.24607D+00  7.51D+00  5.39D+00  4.97D+02    1.16800D-01

 ** RSPCTL MICROITERATION NUMBER   15

 *** INFO, negative eigenvalues in reduced matrix. Symmetry  1,  triplet       F Dimension of reduced matrix =    32

 GP * SOLUTION vector at frequency     0.11680 a.u.
 after   16 linear transformations is      2.25716415D+04
 INERTIA (POS,ZER,NEG) of reduced matrix is   29    0    3
 Determinant of reduced matrix is -2.51 * 10 **-23.0

       No.  Residual tot.,    conf., and orb.    Bnorm      Frequency 
      ----------------------------------------------------------------
         1    6.20050D+00  3.20D+00  5.31D+00  4.95D+02    1.16800D-01

 ** RSPCTL MICROITERATION NUMBER   16

 *** INFO, negative eigenvalues in reduced matrix. Symmetry  1,  triplet       F Dimension of reduced matrix =    34

 GP * SOLUTION vector at frequency     0.11680 a.u.
 after   17 linear transformations is      2.25896403D+04
 INERTIA (POS,ZER,NEG) of reduced matrix is   31    0    3
 Determinant of reduced matrix is -8.86 * 10 **-26.0

       No.  Residual tot.,    conf., and orb.    Bnorm      Frequency 
      ----------------------------------------------------------------
         1    4.42856D+00  3.41D+00  2.82D+00  4.94D+02    1.16800D-01

 ** RSPCTL MICROITERATION NUMBER   17

 *** INFO, negative eigenvalues in reduced matrix. Symmetry  1,  triplet       F Dimension of reduced matrix =    36

 GP * SOLUTION vector at frequency     0.11680 a.u.
 after   18 linear transformations is      2.26043870D+04
 INERTIA (POS,ZER,NEG) of reduced matrix is   33    0    3
 Determinant of reduced matrix is -1.98 * 10 **-26.0

       No.  Residual tot.,    conf., and orb.    Bnorm      Frequency 
      ----------------------------------------------------------------
         1    3.49376D+00  8.36D-01  3.39D+00  4.94D+02    1.16800D-01

 ** RSPCTL MICROITERATION NUMBER   18

 *** INFO, negative eigenvalues in reduced matrix. Symmetry  1,  triplet       F Dimension of reduced matrix =    38

 GP * SOLUTION vector at frequency     0.11680 a.u.
 after   19 linear transformations is      2.26117138D+04
 INERTIA (POS,ZER,NEG) of reduced matrix is   35    0    3
 Determinant of reduced matrix is -7.47 * 10 **-29.0

       No.  Residual tot.,    conf., and orb.    Bnorm      Frequency 
      ----------------------------------------------------------------
         1    2.08977D+00  1.13D+00  1.76D+00  4.94D+02    1.16800D-01

 ** RSPCTL MICROITERATION NUMBER   19

 *** INFO, negative eigenvalues in reduced matrix. Symmetry  1,  triplet       F Dimension of reduced matrix =    40

 GP * SOLUTION vector at frequency     0.11680 a.u.
 after   20 linear transformations is      2.26134620D+04
 INERTIA (POS,ZER,NEG) of reduced matrix is   37    0    3
 Determinant of reduced matrix is -7.51 * 10 **-31.0

       No.  Residual tot.,    conf., and orb.    Bnorm      Frequency 
      ----------------------------------------------------------------
         1    1.43299D+00  1.20D+00  7.86D-01  4.94D+02    1.16800D-01

 ** RSPCTL MICROITERATION NUMBER   20

 *** INFO, negative eigenvalues in reduced matrix. Symmetry  1,  triplet       F Dimension of reduced matrix =    42

 GP * SOLUTION vector at frequency     0.11680 a.u.
 after   21 linear transformations is      2.26144904D+04
 INERTIA (POS,ZER,NEG) of reduced matrix is   39    0    3
 Determinant of reduced matrix is -2.74 * 10 **-31.0

       No.  Residual tot.,    conf., and orb.    Bnorm      Frequency 
      ----------------------------------------------------------------
         1    1.10388D+00  6.51D-01  8.91D-01  4.94D+02    1.16800D-01

 ** RSPCTL MICROITERATION NUMBER   21

 *** INFO, negative eigenvalues in reduced matrix. Symmetry  1,  triplet       F Dimension of reduced matrix =    44

 GP * SOLUTION vector at frequency     0.11680 a.u.
 after   22 linear transformations is      2.26150912D+04
 INERTIA (POS,ZER,NEG) of reduced matrix is   41    0    3
 Determinant of reduced matrix is -1.88 * 10 **-33.0

       No.  Residual tot.,    conf., and orb.    Bnorm      Frequency 
      ----------------------------------------------------------------
         1    7.61832D-01  6.63D-01  3.75D-01  4.94D+02    1.16800D-01

 ** RSPCTL MICROITERATION NUMBER   22

 *** INFO, negative eigenvalues in reduced matrix. Symmetry  1,  triplet       F Dimension of reduced matrix =    46

 GP * SOLUTION vector at frequency     0.11680 a.u.
 after   23 linear transformations is      2.26156186D+04
 INERTIA (POS,ZER,NEG) of reduced matrix is   43    0    3
 Determinant of reduced matrix is -6.33 * 10 **-34.0

       No.  Residual tot.,    conf., and orb.    Bnorm      Frequency 
      ----------------------------------------------------------------
         1    4.67277D-01  1.83D-01  4.30D-01  4.94D+02    1.16800D-01

 *** THE REQUESTED    1 SOLUTION VECTORS CONVERGED

 Convergence of RSP solution vectors, threshold = 1.00D-03
 ---------------------------------------------------------------
 (dimension of paired reduced space:   46)
 RSP solution vector no.    1; norm of residual   9.47D-04

 *** RSPCTL MICROITERATIONS CONVERGED
    YDIPLEN     YDIPLEN      freq1     freq2                Norm
 ---------------------------------------------------------------
                          0.058400  0.058400        493.65478824
  Time used in CRVEC2     is       3 hours  2 minutes 33 seconds


 ----- CALCULATING CONTRIBUTIONS TO SECOND HYPERPOLARIZABILITY -----


   Contribution                Term         Accumulated
 ------------------------------------------------------
 Na T[4] Nb Nc Nd 70059595.61209460   70059595.61209460
 Na T[3] Nx Nyz -172667431.39267457 -102607835.78057995
 Na X[3] Ny Nz     9797430.46645346  -92810405.31412649
 Nx A[3] Ny Nz     3265810.15548450  -89544595.15864199
 Na X[2] Nyz      -8553357.74341334  -98097952.90205532
 Nx A[2] Nyz      -8746363.47793245 -106844316.37998778

@ Cubic response function value in a.u. for
@ A operator, symmetry, frequency:   ZDIPLEN    1 -0.058400
@ B operator, symmetry, frequency:   ZDIPLEN    1  0.058400
@ C operator, symmetry, frequency:   ZDIPLEN    1 -0.058400
@ D operator, symmetry, frequency:   ZDIPLEN    1  0.058400

@ << A; B, C, D >>  =  -106844316.37998778



   Contribution                Term         Accumulated
 ------------------------------------------------------
 Na T[4] Nb Nc Nd   455033.36893563     455033.36893563
 Na T[3] Nx Nyz   -4154338.87210109   -3699305.50316546
 Na X[3] Ny Nz       62589.99051564   -3636715.51264982
 Nx A[3] Ny Nz      125440.09514126   -3511275.41750856
 Na X[2] Nyz       2506164.59775643   -1005110.81975213
 Nx A[2] Nyz       6432978.78073476    5427867.96098264

@ Cubic response function value in a.u. for
@ A operator, symmetry, frequency:   XDIPLEN    2 -0.058400
@ B operator, symmetry, frequency:   XDIPLEN    2  0.058400
@ C operator, symmetry, frequency:   ZDIPLEN    1 -0.058400
@ D operator, symmetry, frequency:   ZDIPLEN    1  0.058400

@ << A; B, C, D >>  =     5427867.96098264



   Contribution                Term         Accumulated
 ------------------------------------------------------
 Na T[4] Nb Nc Nd   -44253.46457344     -44253.46457344
 Na T[3] Nx Nyz     -11115.81818285     -55369.28275629
 Na X[3] Ny Nz       68925.79778935      13556.51503306
 Nx A[3] Ny Nz       33632.38028855      47188.89532161
 Na X[2] Nyz         28544.75992143      75733.65524304
 Nx A[2] Nyz        -10090.61070378      65643.04453927

@ Cubic response function value in a.u. for
@ A operator, symmetry, frequency:   YDIPLEN    3 -0.058400
@ B operator, symmetry, frequency:   YDIPLEN    3  0.058400
@ C operator, symmetry, frequency:   ZDIPLEN    1 -0.058400
@ D operator, symmetry, frequency:   ZDIPLEN    1  0.058400

@ << A; B, C, D >>  =       65643.04453927



   Contribution                Term         Accumulated
 ------------------------------------------------------
 Na T[4] Nb Nc Nd  -169453.37365079    -169453.37365079
 Na T[3] Nx Nyz   -8186490.35118084   -8355943.72483164
 Na X[3] Ny Nz       48862.49229006   -8307081.23254158
 Nx A[3] Ny Nz      119000.47964526   -8188080.75289631
 Na X[2] Nyz       5816108.20913382   -2371972.54376250
 Nx A[2] Nyz      14297202.01669108   11925229.47292858

@ Cubic response function value in a.u. for
@ A operator, symmetry, frequency:   XDIPLEN    2 -0.058400
@ B operator, symmetry, frequency:   ZDIPLEN    1  0.058400
@ C operator, symmetry, frequency:   XDIPLEN    2 -0.058400
@ D operator, symmetry, frequency:   ZDIPLEN    1  0.058400

@ << A; B, C, D >>  =    11925229.47292858



   Contribution                Term         Accumulated
 ------------------------------------------------------
 Na T[4] Nb Nc Nd   -33276.16478049     -33276.16478049
 Na T[3] Nx Nyz      12765.59358015     -20510.57120034
 Na X[3] Ny Nz       54297.02421802      33786.45301768
 Nx A[3] Ny Nz       26566.16527656      60352.61829424
 Na X[2] Nyz        -36099.02165852      24253.59663572
 Nx A[2] Nyz        -84701.76804925     -60448.17141353

@ Cubic response function value in a.u. for
@ A operator, symmetry, frequency:   YDIPLEN    3 -0.058400
@ B operator, symmetry, frequency:   ZDIPLEN    1  0.058400
@ C operator, symmetry, frequency:   YDIPLEN    3 -0.058400
@ D operator, symmetry, frequency:   ZDIPLEN    1  0.058400

@ << A; B, C, D >>  =      -60448.17141353



   Contribution                Term         Accumulated
 ------------------------------------------------------
 Na T[4] Nb Nc Nd  -381122.40828801    -381122.40828801
 Na T[3] Nx Nyz   -9750334.02268297  -10131456.43097099
 Na X[3] Ny Nz      304137.15236082   -9827319.27861017
 Nx A[3] Ny Nz       -1333.93142830   -9828653.21003847
 Na X[2] Nyz      16936535.23303977    7107882.02300131
 Nx A[2] Nyz       4838529.22721162   11946411.25021293

@ Cubic response function value in a.u. for
@ A operator, symmetry, frequency:   ZDIPLEN    1 -0.058400
@ B operator, symmetry, frequency:   XDIPLEN    2  0.058400
@ C operator, symmetry, frequency:   ZDIPLEN    1 -0.058400
@ D operator, symmetry, frequency:   XDIPLEN    2  0.058400

@ << A; B, C, D >>  =    11946411.25021293



   Contribution                Term         Accumulated
 ------------------------------------------------------
 Na T[4] Nb Nc Nd   154866.80004173     154866.80004173
 Na T[3] Nx Nyz    -175838.38669057     -20971.58664883
 Na X[3] Ny Nz       40038.57766281      19066.99101397
 Nx A[3] Ny Nz       13346.19255427      32413.18356824
 Na X[2] Nyz        -29033.08169526       3380.10187298
 Nx A[2] Nyz        -32273.60875502     -28893.50688204

@ Cubic response function value in a.u. for
@ A operator, symmetry, frequency:   XDIPLEN    2 -0.058400
@ B operator, symmetry, frequency:   XDIPLEN    2  0.058400
@ C operator, symmetry, frequency:   XDIPLEN    2 -0.058400
@ D operator, symmetry, frequency:   XDIPLEN    2  0.058400

@ << A; B, C, D >>  =      -28893.50688204



   Contribution                Term         Accumulated
 ------------------------------------------------------
 Na T[4] Nb Nc Nd    -2202.87970222      -2202.87970222
 Na T[3] Nx Nyz       2980.29535619        777.41565398
 Na X[3] Ny Nz        3861.90918594       4639.32483992
 Nx A[3] Ny Nz         671.28291097       5310.60775089
 Na X[2] Nyz        -15097.48785753      -9786.88010664
 Nx A[2] Nyz        -17792.76925234     -27579.64935897

@ Cubic response function value in a.u. for
@ A operator, symmetry, frequency:   YDIPLEN    3 -0.058400
@ B operator, symmetry, frequency:   YDIPLEN    3  0.058400
@ C operator, symmetry, frequency:   XDIPLEN    2 -0.058400
@ D operator, symmetry, frequency:   XDIPLEN    2  0.058400

@ << A; B, C, D >>  =      -27579.64935897



   Contribution                Term         Accumulated
 ------------------------------------------------------
 Na T[4] Nb Nc Nd     1260.53986069       1260.53986069
 Na T[3] Nx Nyz       4697.69037402       5958.23023471
 Na X[3] Ny Nz       -2593.48184778       3364.74838693
 Nx A[3] Ny Nz       -1581.74192811       1783.00645883
 Na X[2] Nyz         -8285.49898956      -6502.49253074
 Nx A[2] Nyz         -9835.81285534     -16338.30538608

@ Cubic response function value in a.u. for
@ A operator, symmetry, frequency:   YDIPLEN    3 -0.058400
@ B operator, symmetry, frequency:   XDIPLEN    2  0.058400
@ C operator, symmetry, frequency:   YDIPLEN    3 -0.058400
@ D operator, symmetry, frequency:   XDIPLEN    2  0.058400

@ << A; B, C, D >>  =      -16338.30538608



   Contribution                Term         Accumulated
 ------------------------------------------------------
 Na T[4] Nb Nc Nd   -12628.17729789     -12628.17729789
 Na T[3] Nx Nyz      -7773.66722903     -20401.84452691
 Na X[3] Ny Nz       24895.23764030       4493.39311338
 Nx A[3] Ny Nz        -168.74465712       4324.64845626
 Na X[2] Nyz        -44966.48421712     -40641.83576087
 Nx A[2] Nyz        -16989.83777510     -57631.67353597

@ Cubic response function value in a.u. for
@ A operator, symmetry, frequency:   ZDIPLEN    1 -0.058400
@ B operator, symmetry, frequency:   YDIPLEN    3  0.058400
@ C operator, symmetry, frequency:   ZDIPLEN    1 -0.058400
@ D operator, symmetry, frequency:   YDIPLEN    3  0.058400

@ << A; B, C, D >>  =      -57631.67353597



   Contribution                Term         Accumulated
 ------------------------------------------------------
 Na T[4] Nb Nc Nd      -22.91887410        -22.91887410
 Na T[3] Nx Nyz      10165.29923487      10142.38036077
 Na X[3] Ny Nz       -1195.74975408       8946.63060669
 Nx A[3] Ny Nz         318.66472748       9265.29533417
 Na X[2] Nyz        -14176.44739529      -4911.15206112
 Nx A[2] Nyz        -11462.11347840     -16373.26553952

@ Cubic response function value in a.u. for
@ A operator, symmetry, frequency:   XDIPLEN    2 -0.058400
@ B operator, symmetry, frequency:   YDIPLEN    3  0.058400
@ C operator, symmetry, frequency:   XDIPLEN    2 -0.058400
@ D operator, symmetry, frequency:   YDIPLEN    3  0.058400

@ << A; B, C, D >>  =      -16373.26553952



   Contribution                Term         Accumulated
 ------------------------------------------------------
 Na T[4] Nb Nc Nd     -576.70272705       -576.70272705
 Na T[3] Nx Nyz       6477.71534019       5901.01261313
 Na X[3] Ny Nz        2527.19637189       8428.20898503
 Nx A[3] Ny Nz         842.39879063       9270.60777566
 Na X[2] Nyz        -24894.95954960     -15624.35177394
 Nx A[2] Nyz        -25007.72947335     -40632.08124729

@ Cubic response function value in a.u. for
@ A operator, symmetry, frequency:   YDIPLEN    3 -0.058400
@ B operator, symmetry, frequency:   YDIPLEN    3  0.058400
@ C operator, symmetry, frequency:   YDIPLEN    3 -0.058400
@ D operator, symmetry, frequency:   YDIPLEN    3  0.058400

@ << A; B, C, D >>  =      -40632.08124729



  Summary of gamma values for a set of frequencies
 -------------------------------------------------

@ B-freq:  0.058400
@ C-freq: -0.058400
@ D-freq:  0.058400

@ gamma(X;X,X,X)      28893.5069
@ gamma(X;X,Y,Y)      27579.6494
@ gamma(X;Y,Y,X)      27579.6494
@ gamma(X;Y,X,Y)      16373.2655
@ gamma(X;X,Z,Z)   -5427867.9610
@ gamma(X;Z,Z,X)   -5427867.9610
@ gamma(X;Z,X,Z)  -11925229.4729
@ gamma(Y;Y,X,X)      27579.6494
@ gamma(Y;X,X,Y)      27579.6494
@ gamma(Y;X,Y,X)      16338.3054
@ gamma(Y;Y,Y,Y)      40632.0812
@ gamma(Y;Y,Z,Z)     -65643.0445
@ gamma(Y;Z,Z,Y)     -65643.0445
@ gamma(Y;Z,Y,Z)      60448.1714
@ gamma(Z;Z,X,X)   -5427867.9610
@ gamma(Z;X,X,Z)   -5427867.9610
@ gamma(Z;X,Z,X)  -11946411.2502
@ gamma(Z;Z,Y,Y)     -65643.0445
@ gamma(Z;Y,Y,Z)     -65643.0445
@ gamma(Z;Y,Z,Y)      57631.6735
@ gamma(Z;Z,Z,Z)  106844316.3800

@ Averaged gamma parallel to the applied field is  18343796.744829

  Total CPU  time used in RESPONSE:   7 hours 54 minutes 47 seconds
  Total wall time used in RESPONSE:   7 hours 55 minutes  6 seconds


                   .-------------------------------------------.
                   | End of Dynamic Property Section (RESPONS) |
                   `-------------------------------------------'

  Total CPU  time used in DALTON:  10 hours 35 minutes 46 seconds
  Total wall time used in DALTON:  10 hours 36 minutes  8 seconds

 
     Date and time (Linux)  : Wed Feb  5 15:37:37 2020
     Host name              : Lab2-333-NPs                            
