

     ************************************************************************
     *************** Dalton - An Electronic Structure Program ***************
     ************************************************************************

    This is output from DALTON release Dalton2018.1 (2019)
         ( Web site: http://daltonprogram.org )

   ----------------------------------------------------------------------------

    NOTE:
     
    Dalton is an experimental code for the evaluation of molecular
    properties using (MC)SCF, DFT, CI, and CC wave functions.
    The authors accept no responsibility for the performance of
    the code or for the correctness of the results.
     
    The code (in whole or part) is provided under a licence and
    is not to be reproduced for further distribution without
    the written permission of the authors or their representatives.
     
    See the home page "http://daltonprogram.org" for further information.
     
    If results obtained with this code are published,
    the appropriate citations would be both of:
     
       K. Aidas, C. Angeli, K. L. Bak, V. Bakken, R. Bast,
       L. Boman, O. Christiansen, R. Cimiraglia, S. Coriani,
       P. Dahle, E. K. Dalskov, U. Ekstroem,
       T. Enevoldsen, J. J. Eriksen, P. Ettenhuber, B. Fernandez,
       L. Ferrighi, H. Fliegl, L. Frediani, K. Hald, A. Halkier,
       C. Haettig, H. Heiberg, T. Helgaker, A. C. Hennum,
       H. Hettema, E. Hjertenaes, S. Hoest, I.-M. Hoeyvik,
       M. F. Iozzi, B. Jansik, H. J. Aa. Jensen, D. Jonsson,
       P. Joergensen, J. Kauczor, S. Kirpekar,
       T. Kjaergaard, W. Klopper, S. Knecht, R. Kobayashi, H. Koch,
       J. Kongsted, A. Krapp, K. Kristensen, A. Ligabue,
       O. B. Lutnaes, J. I. Melo, K. V. Mikkelsen, R. H. Myhre,
       C. Neiss, C. B. Nielsen, P. Norman, J. Olsen,
       J. M. H. Olsen, A. Osted, M. J. Packer, F. Pawlowski,
       T. B. Pedersen, P. F. Provasi, S. Reine, Z. Rinkevicius,
       T. A. Ruden, K. Ruud, V. Rybkin, P. Salek, C. C. M. Samson,
       A. Sanchez de Meras, T. Saue, S. P. A. Sauer,
       B. Schimmelpfennig, K. Sneskov, A. H. Steindal,
       K. O. Sylvester-Hvid, P. R. Taylor, A. M. Teale,
       E. I. Tellgren, D. P. Tew, A. J. Thorvaldsen, L. Thoegersen,
       O. Vahtras, M. A. Watson, D. J. D. Wilson, M. Ziolkowski
       and H. Agren,
       "The Dalton quantum chemistry program system",
       WIREs Comput. Mol. Sci. 2014, 4:269–284 (doi: 10.1002/wcms.1172)
     
    and
     
       Dalton, a molecular electronic structure program,
       Release Dalton2018.1 (2019), see http://daltonprogram.org
   ----------------------------------------------------------------------------

    Authors in alphabetical order (major contribution(s) in parenthesis):

  Kestutis Aidas,           Vilnius University,           Lithuania   (QM/MM)
  Celestino Angeli,         University of Ferrara,        Italy       (NEVPT2)
  Keld L. Bak,              UNI-C,                        Denmark     (AOSOPPA, non-adiabatic coupling, magnetic properties)
  Vebjoern Bakken,          University of Oslo,           Norway      (DALTON; geometry optimizer, symmetry detection)
  Radovan Bast,             UiT The Arctic U. of Norway,  Norway      (DALTON installation and execution frameworks)
  Pablo Baudin,             University of Valencia,       Spain       (Cholesky excitation energies)
  Linus Boman,              NTNU,                         Norway      (Cholesky decomposition and subsystems)
  Ove Christiansen,         Aarhus University,            Denmark     (CC module)
  Renzo Cimiraglia,         University of Ferrara,        Italy       (NEVPT2)
  Sonia Coriani,            Technical Univ. of Denmark,   Denmark     (CC module, MCD in RESPONS)
  Janusz Cukras,            University of Trieste,        Italy       (MChD in RESPONS)
  Paal Dahle,               University of Oslo,           Norway      (Parallelization)
  Erik K. Dalskov,          UNI-C,                        Denmark     (SOPPA)
  Thomas Enevoldsen,        Univ. of Southern Denmark,    Denmark     (SOPPA)
  Janus J. Eriksen,         Aarhus University,            Denmark     (Polarizable embedding model, TDA)
  Rasmus Faber,             University of Copenhagen,     Denmark     (Vib.avg. NMR with SOPPA, parallel AO-SOPPA)
  Tobias Fahleson,          KTH Stockholm,                Sweden      (Damped cubic response)
  Berta Fernandez,          U. of Santiago de Compostela, Spain       (doublet spin, ESR in RESPONS)
  Lara Ferrighi,            Aarhus University,            Denmark     (PCM Cubic response)
  Heike Fliegl,             University of Oslo,           Norway      (CCSD(R12))
  Luca Frediani,            UiT The Arctic U. of Norway,  Norway      (PCM)
  Bin Gao,                  UiT The Arctic U. of Norway,  Norway      (Gen1Int library)
  Christof Haettig,         Ruhr-University Bochum,       Germany     (CC module)
  Kasper Hald,              Aarhus University,            Denmark     (CC module)
  Asger Halkier,            Aarhus University,            Denmark     (CC module)
  Frederik Beyer Hansen,    University of Copenhagen,     Denmark     (Parallel AO-SOPPA)
  Erik D. Hedegaard,        Univ. of Southern Denmark,    Denmark     (Polarizable embedding model, QM/MM)
  Hanne Heiberg,            University of Oslo,           Norway      (geometry analysis, selected one-electron integrals)
  Trygve Helgaker,          University of Oslo,           Norway      (DALTON; ABACUS, ERI, DFT modules, London, and much more)
  Alf Christian Hennum,     University of Oslo,           Norway      (Parity violation)
  Hinne Hettema,            University of Auckland,       New Zealand (quadratic response in RESPONS; SIRIUS supersymmetry)
  Eirik Hjertenaes,         NTNU,                         Norway      (Cholesky decomposition)
  Pi A. B. Haase,           University of Copenhagen,     Denmark     (Triplet AO-SOPPA)
  Maria Francesca Iozzi,    University of Oslo,           Norway      (RPA)
  Christoph Jacob           TU Braunschweig               Germany     (Frozen density embedding model)
  Brano Jansik              Technical Univ. of Ostrava    Czech Rep.  (DFT cubic response)
  Hans Joergen Aa. Jensen,  Univ. of Southern Denmark,    Denmark     (DALTON; SIRIUS, RESPONS, ABACUS modules, London, and much more)
  Dan Jonsson,              UiT The Arctic U. of Norway,  Norway      (cubic response in RESPONS module)
  Poul Joergensen,          Aarhus University,            Denmark     (RESPONS, ABACUS, and CC modules)
  Maciej Kaminski,          University of Warsaw,         Poland      (CPPh in RESPONS)
  Joanna Kauczor,           Linkoeping University,        Sweden      (Complex polarization propagator (CPP) module)
  Sheela Kirpekar,          Univ. of Southern Denmark,    Denmark     (Mass-velocity & Darwin integrals)
  Wim Klopper,              KIT Karlsruhe,                Germany     (R12 code in CC, SIRIUS, and ABACUS modules)
  Stefan Knecht,            ETH Zurich,                   Switzerland (Parallel CI and MCSCF)
  Rika Kobayashi,           Australian National Univ.,    Australia   (DIIS in CC, London in MCSCF)
  Henrik Koch,              NTNU,                         Norway      (CC module, Cholesky decomposition)
  Jacob Kongsted,           Univ. of Southern Denmark,    Denmark     (Polarizable embedding model, QM/MM)
  Andrea Ligabue,           University of Modena,         Italy       (CTOCD, AOSOPPA)
  Nanna H. List             Univ. of Southern Denmark,    Denmark     (Polarizable embedding model)
  Ola B. Lutnaes,           University of Oslo,           Norway      (DFT Hessian)
  Juan I. Melo,             University of Buenos Aires,   Argentina   (LRESC, Relativistic Effects on NMR Shieldings)
  Kurt V. Mikkelsen,        University of Copenhagen,     Denmark     (MC-SCRF and QM/MM)
  Rolf H. Myhre,            NTNU,                         Norway      (Subsystems and CC3)
  Christian Neiss,          Univ. Erlangen-Nuernberg,     Germany     (CCSD(R12))
  Christian B. Nielsen,     University of Copenhagen,     Denmark     (QM/MM)
  Patrick Norman,           KTH Stockholm,                Sweden      (Cubic response and complex frequency response in RESPONS)
  Jeppe Olsen,              Aarhus University,            Denmark     (SIRIUS CI/density modules)
  Jogvan Magnus H. Olsen,   Univ. of Southern Denmark,    Denmark     (Polarizable embedding model, QM/MM)
  Anders Osted,             Copenhagen University,        Denmark     (QM/MM)
  Martin J. Packer,         University of Sheffield,      UK          (SOPPA)
  Filip Pawlowski,          Kazimierz Wielki University,  Poland      (CC3)
  Morten N. Pedersen,       Univ. of Southern Denmark,    Denmark     (Polarizable embedding model)
  Thomas B. Pedersen,       University of Oslo,           Norway      (Cholesky decomposition)
  Patricio F. Provasi,      University of Northeastern,   Argentina   (Analysis of coupling constants in localized orbitals)
  Zilvinas Rinkevicius,     KTH Stockholm,                Sweden      (open-shell DFT, ESR)
  Elias Rudberg,            KTH Stockholm,                Sweden      (DFT grid and basis info)
  Torgeir A. Ruden,         University of Oslo,           Norway      (Numerical derivatives in ABACUS)
  Kenneth Ruud,             UiT The Arctic U. of Norway,  Norway      (DALTON; ABACUS magnetic properties and much more)
  Pawel Salek,              KTH Stockholm,                Sweden      (DALTON; DFT code)
  Claire C. M. Samson       University of Karlsruhe       Germany     (Boys localization, r12 integrals in ERI)
  Alfredo Sanchez de Meras, University of Valencia,       Spain       (CC module, Cholesky decomposition)
  Trond Saue,               Paul Sabatier University,     France      (direct Fock matrix construction)
  Stephan P. A. Sauer,      University of Copenhagen,     Denmark     (SOPPA(CCSD), SOPPA prop., AOSOPPA, vibrational g-factors)
  Andre S. P. Gomes,        CNRS/Universite de Lille,     France      (Frozen density embedding model)
  Bernd Schimmelpfennig,    Forschungszentrum Karlsruhe,  Germany     (AMFI module)
  Kristian Sneskov,         Aarhus University,            Denmark     (Polarizable embedding model, QM/MM)
  Arnfinn H. Steindal,      UiT The Arctic U. of Norway,  Norway      (parallel QM/MM, Polarizable embedding model)
  Casper Steinmann,         Univ. of Southern Denmark,    Denmark     (QFIT, Polarizable embedding model)
  K. O. Sylvester-Hvid,     University of Copenhagen,     Denmark     (MC-SCRF)
  Peter R. Taylor,          VLSCI/Univ. of Melbourne,     Australia   (Symmetry handling ABACUS, integral transformation)
  Andrew M. Teale,          University of Nottingham,     England     (DFT-AC, DFT-D)
  David P. Tew,             University of Bristol,        England     (CCSD(R12))
  Olav Vahtras,             KTH Stockholm,                Sweden      (triplet response, spin-orbit, ESR, TDDFT, open-shell DFT)
  Lucas Visscher,           Vrije Universiteit Amsterdam, Netherlands (Frozen density embedding model)
  David J. Wilson,          La Trobe University,          Australia   (DFT Hessian and DFT magnetizabilities)
  Hans Agren,               KTH Stockholm,                Sweden      (SIRIUS module, RESPONS, MC-SCRF solvation model)
 --------------------------------------------------------------------------------

     Date and time (Linux)  : Thu Feb  6 12:29:59 2020
     Host name              : Lab2-333-NPs                            

 * Work memory size             :  1024000000 =  7.629 gigabytes.

 * Directories for basis set searches:
   1) /home/lab333/dalton/build_2018_atlas
   2) /home/lab333/dalton/build_2018_atlas/basis


Compilation information
-----------------------

 Who compiled             | lab333
 Host                     | Lab2-333-NPs
 System                   | Linux-4.4.0-43-Microsoft
 CMake generator          | Unix Makefiles
 Processor                | x86_64
 64-bit integers          | OFF
 MPI                      | OFF
 Fortran compiler         | /usr/bin/gfortran
 Fortran compiler version | GNU Fortran (Ubuntu 7.3.0-27ubuntu1~18.04) 7.3.0
 C compiler               | /usr/bin/gcc
 C compiler version       | gcc (Ubuntu 7.3.0-27ubuntu1~18.04) 7.3.0
 C++ compiler             | /usr/bin/g++
 C++ compiler version     | g++ (Ubuntu 7.3.0-27ubuntu1~18.04) 7.3.0
 BLAS                     | /usr/lib/x86_64-linux-gnu/libf77blas.so;/usr/lib/x
                          | 86_64-linux-gnu/libcblas.so;/usr/lib/x86_64-linux-
                          | gnu/libatlas.so
 LAPACK                   | /usr/lib/x86_64-linux-gnu/libatlas.so;/usr/lib/x86
                          | _64-linux-gnu/atlas/liblapack.so
 Static linking           | OFF
 Last Git revision        | da625bf48c74028e805616daee31bc5d76b3a20d
 Git branch               | (HEAD detached at Dalton2018.1)
 Configuration time       | 2019-01-18 10:20:51.437510


   Content of the .dal input file
 ----------------------------------

**DALTON INPUT
.RUN RESPONSE
.DIRECT
**WAVE FUNCTIONS
.HF
.MP2
.MCSCF
*CONFIGURATION INPUT
.SPIN MULTIPLICITY
3
.SYMMETRY
1
.INACTIVE ORBITALS
15 10 2 0
.CAS SPACE
1 1 2 3
.ELECTRONS
10
*ORBITAL INPUT
.MOSTART
.HUCKEL
*OPTIMIZATION
.DETERMINANTS
.STATE
2
*CI VECTOR
.PLUS COMBINATIONS
**RESPONSE
*CUBIC
.DIPLEN
.BFREQ
1
0.0584
.CFREQ
1
-0.0584
.DFREQ
1
0.0584
**END OF DALTON INPUT


   Content of the .mol file
 ----------------------------

BASIS
aug-cc-pCVDZ
 nitrobenzene
 Generated by the Dalton Input File Plugin for Avogadro
Atomtypes=4 Angstrom Generators=2 X Y
Charge=6.0 Atoms=4
C        0.0000000000            0.0000000000           -0.0265759623
C       -1.2190534920            0.0000000000           -0.6979856948
C       -1.2105095870            0.0000000000           -2.0897394457
C        0.0000000000            0.0000000000           -2.7841484631
Charge=7.0 Atoms=1
N        0.0000000000            0.0000000000            1.4549291696
Charge=8.0 Atoms=1
O       1.0325571060506837            0.0            2.1136177656984163
Charge=1.0 Atoms=3
H       -2.1410602955            0.0000000000           -0.1327964319
H       -2.1492827751            0.0000000000           -2.6311811056
H        0.0000000000            0.0000000000           -3.8683953478


       *******************************************************************
       *********** Output from DALTON general input processing ***********
       *******************************************************************

 --------------------------------------------------------------------------------
   Overall default print level:    0
   Print level for DALTON.STAT:    1

    AO-direct calculation (in sections where implemented)
    HERMIT 1- and 2-electron integral sections will be executed
    "Old" integral transformation used (limited to max 255 basis functions)
    Wave function sections will be executed (SIRIUS module)
    Dynamic molecular response properties section will be executed (RESPONSE module)
 --------------------------------------------------------------------------------


   ****************************************************************************
   *************** Output of molecule and basis set information ***************
   ****************************************************************************


    The two title cards from your ".mol" input:
    ------------------------------------------------------------------------
 1:  nitrobenzene                                                           
 2:  Generated by the Dalton Input File Plugin for Avogadro                 
    ------------------------------------------------------------------------

  Coordinates are entered in Angstrom and converted to atomic units.
          - Conversion factor : 1 bohr = 0.52917721 A

  Atomic type no.    1
  --------------------
  Nuclear charge:   6.00000
  Number of symmetry independent centers:    4
  Number of basis sets to read;    2
  Basis set file used for this atomic type with Z =   6 :
     "/home/lab333/dalton/build_2018_atlas/basis/aug-cc-pCVDZ"

  Atomic type no.    2
  --------------------
  Nuclear charge:   7.00000
  Number of symmetry independent centers:    1
  Number of basis sets to read;    2
  Basis set file used for this atomic type with Z =   7 :
     "/home/lab333/dalton/build_2018_atlas/basis/aug-cc-pCVDZ"

  Atomic type no.    3
  --------------------
  Nuclear charge:   8.00000
  Number of symmetry independent centers:    1
  Number of basis sets to read;    2
  Basis set file used for this atomic type with Z =   8 :
     "/home/lab333/dalton/build_2018_atlas/basis/aug-cc-pCVDZ"

  Atomic type no.    4
  --------------------
  Nuclear charge:   1.00000
  Number of symmetry independent centers:    3
  Number of basis sets to read;    2
  Basis set file used for this atomic type with Z =   1 :
     "/home/lab333/dalton/build_2018_atlas/basis/aug-cc-pCVDZ"


                         SYMGRP: Point group information
                         -------------------------------

@    Point group: C2v

@  * The irrep name for each symmetry:    1: A1     2: B1     3: B2     4: A2 

   * The point group was generated by:

      Reflection in the yz-plane
      Reflection in the xz-plane

   * Group multiplication table

        |  E   C2z  Oxz  Oyz
   -----+--------------------
     E  |  E   C2z  Oxz  Oyz
    C2z | C2z   E   Oyz  Oxz
    Oxz | Oxz  Oyz   E   C2z
    Oyz | Oyz  Oxz  C2z   E 

   * Character table

        |  E   C2z  Oxz  Oyz
   -----+--------------------
    A1  |   1    1    1    1
    B1  |   1   -1    1   -1
    B2  |   1   -1   -1    1
    A2  |   1    1   -1   -1

   * Direct product table

        | A1   B1   B2   A2 
   -----+--------------------
    A1  | A1   B1   B2   A2 
    B1  | B1   A1   A2   B2 
    B2  | B2   A2   A1   B1 
    A2  | A2   B2   B1   A1 


                                 Isotopic Masses
                                 ---------------

                           C          12.000000
                           C   _1     12.000000
                           C   _2     12.000000
                           C   _1     12.000000
                           C   _2     12.000000
                           C          12.000000
                           N          14.003074
                           O   _1     15.994915
                           O   _2     15.994915
                           H   _1      1.007825
                           H   _2      1.007825
                           H   _1      1.007825
                           H   _2      1.007825
                           H           1.007825

                       Total mass:   123.032029 amu
                       Natural abundance:  92.716 %

 Center-of-mass coordinates (a.u.):    0.000000    0.000000   -0.339697


  Atoms and basis sets
  --------------------

  Number of atom types :    4
  Total number of atoms:   14

  Basis set used is "aug-cc-pCVDZ" from the basis set library.

  label    atoms   charge   prim   cont     basis
  ----------------------------------------------------------------------
  C           6    6.0000    39    27      [11s6p2d|5s4p2d]                                   
  N           1    7.0000    39    27      [11s6p2d|5s4p2d]                                   
  O           2    8.0000    39    27      [11s6p2d|5s4p2d]                                   
  H           5    1.0000    11     9      [5s2p|3s2p]                                        
  ----------------------------------------------------------------------
  total:     14   64.0000   406   288
  ----------------------------------------------------------------------
  Spherical harmonic basis used.

  Threshold for neglecting AO integrals:  1.00D-12


  Symmetry Coordinates
  --------------------

  Number of coordinates in each symmetry:    14   14    9    5


   Interatomic separations (in Angstrom):
   --------------------------------------

            C           C   _1      C   _2      C   _1      C   _2      C     
            ------      ------      ------      ------      ------      ------
 C     :    0.000000
 C   _1:    1.391719    0.000000
 C   _2:    1.391719    2.438107    0.000000
 C   _1:    2.392065    1.391780    2.799956    0.000000
 C   _2:    2.392065    2.799956    1.391780    2.421019    0.000000
 C     :    2.757573    2.416230    2.416230    1.395542    1.395542    0.000000
 N     :    1.481505    2.474093    2.474093    3.745665    3.745665    4.239078
 O   _1:    2.376258    3.602064    2.817782    4.764406    4.207122    5.005426
 O   _2:    2.376258    2.817782    3.602064    4.207122    4.764406    5.005426
 H   _1:    2.143694    1.081451    3.407316    2.166922    3.881063    3.407904
 H   _2:    2.143694    3.407316    1.081451    3.881063    2.166922    3.407904
 H   _1:    3.376890    2.145360    3.883675    1.083722    3.403140    2.154719
 H   _2:    3.376890    3.883675    2.145360    3.403140    1.083722    2.154719
 H     :    3.841819    3.396703    3.396703    2.151500    2.151500    1.084247

            N           O   _1      O   _2      H   _1      H   _2      H   _1
            ------      ------      ------      ------      ------      ------
 N     :    0.000000
 O   _1:    1.224763    0.000000
 O   _2:    1.224763    2.065114    0.000000
 H   _1:    2.665523    3.888216    2.505026    0.000000
 H   _2:    2.665523    2.505026    3.888216    4.282121    0.000000
 H   _1:    4.616894    5.712900    4.874443    2.498398    4.964773    0.000000
 H   _2:    4.616894    4.874443    5.712900    4.964773    2.498398    4.298566
 H     :    5.323325    6.070474    6.070474    4.305675    4.305675    2.479943

            H   _2      H     
            ------      ------
 H   _2:    0.000000
 H     :    2.479943    0.000000


  Max    interatomic separation is    6.0705 Angstrom (   11.4715 Bohr)
  between atoms   14 and    8, "H     " and "O   _1".

  Min HX interatomic separation is    1.0815 Angstrom (    2.0436 Bohr)

  Min YX interatomic separation is    1.2248 Angstrom (    2.3145 Bohr)


  Bond distances (Angstrom):
  --------------------------

                  atom 1     atom 2       distance
                  ------     ------       --------
  bond distance:  C   _1     C            1.391719
  bond distance:  C   _2     C            1.391719
  bond distance:  C   _1     C   _1       1.391780
  bond distance:  C   _2     C   _2       1.391780
  bond distance:  C          C   _1       1.395542
  bond distance:  C          C   _2       1.395542
  bond distance:  N          C            1.481505
  bond distance:  O   _1     N            1.224763
  bond distance:  O   _2     N            1.224763
  bond distance:  H   _1     C   _1       1.081451
  bond distance:  H   _2     C   _2       1.081451
  bond distance:  H   _1     C   _1       1.083722
  bond distance:  H   _2     C   _2       1.083722
  bond distance:  H          C            1.084247


  Bond angles (degrees):
  ----------------------

                  atom 1     atom 2     atom 3         angle
                  ------     ------     ------         -----
  bond angle:     C   _1     C          C   _2       122.311
  bond angle:     C   _1     C          N            118.844
  bond angle:     C   _2     C          N            118.844
  bond angle:     C          C   _1     C   _1       118.493
  bond angle:     C          C   _1     H   _1       119.647
  bond angle:     C   _1     C   _1     H   _1       121.860
  bond angle:     C          C   _2     C   _2       118.493
  bond angle:     C          C   _2     H   _2       119.647
  bond angle:     C   _2     C   _2     H   _2       121.860
  bond angle:     C   _1     C   _1     C            120.192
  bond angle:     C   _1     C   _1     H   _1       119.623
  bond angle:     C          C   _1     H   _1       120.185
  bond angle:     C   _2     C   _2     C            120.192
  bond angle:     C   _2     C   _2     H   _2       119.623
  bond angle:     C          C   _2     H   _2       120.185
  bond angle:     C   _1     C          C   _2       120.319
  bond angle:     C   _1     C          H            119.841
  bond angle:     C   _2     C          H            119.841
  bond angle:     C          N          O   _1       122.535
  bond angle:     C          N          O   _2       122.535
  bond angle:     O   _1     N          O   _2       114.931




 Principal moments of inertia (u*A**2) and principal axes
 --------------------------------------------------------

   IA     123.492075          0.000000    0.000000    1.000000
   IB     407.175739          1.000000    0.000000    0.000000
   IC     530.667814          0.000000    1.000000    0.000000


 Rotational constants
 --------------------

@    The molecule is planar.

               A                   B                   C

           4092.4003           1241.1815            952.3453 MHz
            0.136508            0.041401            0.031767 cm-1


@  Nuclear repulsion energy :  410.875130999884 Hartree


  Symmetry Orbitals
  -----------------

  Number of orbitals in each symmetry:         115   91   48   34


  Symmetry  A1 ( 1)

    1     C        1s         1
    2     C        1s         2
    3     C        1s         3
    4     C        1s         4
    5     C        1s         5
    6     C        2pz        8
    7     C        2pz       11
    8     C        2pz       14
    9     C        2pz       17
   10     C        3d0       20
   11     C        3d2+      22
   12     C        3d0       25
   13     C        3d2+      27
   14     C        1s        28 +   29
   15     C        1s        30 +   31
   16     C        1s        32 +   33
   17     C        1s        34 +   35
   18     C        1s        36 +   37
   19     C        2px       38 -   39
   20     C        2pz       42 +   43
   21     C        2px       44 -   45
   22     C        2pz       48 +   49
   23     C        2px       50 -   51
   24     C        2pz       54 +   55
   25     C        2px       56 -   57
   26     C        2pz       60 +   61
   27     C        3d0       66 +   67
   28     C        3d1+      68 -   69
   29     C        3d2+      70 +   71
   30     C        3d0       76 +   77
   31     C        3d1+      78 -   79
   32     C        3d2+      80 +   81
   33     C        1s        82 +   83
   34     C        1s        84 +   85
   35     C        1s        86 +   87
   36     C        1s        88 +   89
   37     C        1s        90 +   91
   38     C        2px       92 -   93
   39     C        2pz       96 +   97
   40     C        2px       98 -   99
   41     C        2pz      102 +  103
   42     C        2px      104 -  105
   43     C        2pz      108 +  109
   44     C        2px      110 -  111
   45     C        2pz      114 +  115
   46     C        3d0      120 +  121
   47     C        3d1+     122 -  123
   48     C        3d2+     124 +  125
   49     C        3d0      130 +  131
   50     C        3d1+     132 -  133
   51     C        3d2+     134 +  135
   52     C        1s       136
   53     C        1s       137
   54     C        1s       138
   55     C        1s       139
   56     C        1s       140
   57     C        2pz      143
   58     C        2pz      146
   59     C        2pz      149
   60     C        2pz      152
   61     C        3d0      155
   62     C        3d2+     157
   63     C        3d0      160
   64     C        3d2+     162
   65     N        1s       163
   66     N        1s       164
   67     N        1s       165
   68     N        1s       166
   69     N        1s       167
   70     N        2pz      170
   71     N        2pz      173
   72     N        2pz      176
   73     N        2pz      179
   74     N        3d0      182
   75     N        3d2+     184
   76     N        3d0      187
   77     N        3d2+     189
   78     O        1s       190 +  191
   79     O        1s       192 +  193
   80     O        1s       194 +  195
   81     O        1s       196 +  197
   82     O        1s       198 +  199
   83     O        2px      200 -  201
   84     O        2pz      204 +  205
   85     O        2px      206 -  207
   86     O        2pz      210 +  211
   87     O        2px      212 -  213
   88     O        2pz      216 +  217
   89     O        2px      218 -  219
   90     O        2pz      222 +  223
   91     O        3d0      228 +  229
   92     O        3d1+     230 -  231
   93     O        3d2+     232 +  233
   94     O        3d0      238 +  239
   95     O        3d1+     240 -  241
   96     O        3d2+     242 +  243
   97     H        1s       244 +  245
   98     H        1s       246 +  247
   99     H        1s       248 +  249
  100     H        2px      250 -  251
  101     H        2pz      254 +  255
  102     H        2px      256 -  257
  103     H        2pz      260 +  261
  104     H        1s       262 +  263
  105     H        1s       264 +  265
  106     H        1s       266 +  267
  107     H        2px      268 -  269
  108     H        2pz      272 +  273
  109     H        2px      274 -  275
  110     H        2pz      278 +  279
  111     H        1s       280
  112     H        1s       281
  113     H        1s       282
  114     H        2pz      285
  115     H        2pz      288


  Symmetry  B1 ( 2)

  116     C        2px        6
  117     C        2px        9
  118     C        2px       12
  119     C        2px       15
  120     C        3d1+      21
  121     C        3d1+      26
  122     C        1s        28 -   29
  123     C        1s        30 -   31
  124     C        1s        32 -   33
  125     C        1s        34 -   35
  126     C        1s        36 -   37
  127     C        2px       38 +   39
  128     C        2pz       42 -   43
  129     C        2px       44 +   45
  130     C        2pz       48 -   49
  131     C        2px       50 +   51
  132     C        2pz       54 -   55
  133     C        2px       56 +   57
  134     C        2pz       60 -   61
  135     C        3d0       66 -   67
  136     C        3d1+      68 +   69
  137     C        3d2+      70 -   71
  138     C        3d0       76 -   77
  139     C        3d1+      78 +   79
  140     C        3d2+      80 -   81
  141     C        1s        82 -   83
  142     C        1s        84 -   85
  143     C        1s        86 -   87
  144     C        1s        88 -   89
  145     C        1s        90 -   91
  146     C        2px       92 +   93
  147     C        2pz       96 -   97
  148     C        2px       98 +   99
  149     C        2pz      102 -  103
  150     C        2px      104 +  105
  151     C        2pz      108 -  109
  152     C        2px      110 +  111
  153     C        2pz      114 -  115
  154     C        3d0      120 -  121
  155     C        3d1+     122 +  123
  156     C        3d2+     124 -  125
  157     C        3d0      130 -  131
  158     C        3d1+     132 +  133
  159     C        3d2+     134 -  135
  160     C        2px      141
  161     C        2px      144
  162     C        2px      147
  163     C        2px      150
  164     C        3d1+     156
  165     C        3d1+     161
  166     N        2px      168
  167     N        2px      171
  168     N        2px      174
  169     N        2px      177
  170     N        3d1+     183
  171     N        3d1+     188
  172     O        1s       190 -  191
  173     O        1s       192 -  193
  174     O        1s       194 -  195
  175     O        1s       196 -  197
  176     O        1s       198 -  199
  177     O        2px      200 +  201
  178     O        2pz      204 -  205
  179     O        2px      206 +  207
  180     O        2pz      210 -  211
  181     O        2px      212 +  213
  182     O        2pz      216 -  217
  183     O        2px      218 +  219
  184     O        2pz      222 -  223
  185     O        3d0      228 -  229
  186     O        3d1+     230 +  231
  187     O        3d2+     232 -  233
  188     O        3d0      238 -  239
  189     O        3d1+     240 +  241
  190     O        3d2+     242 -  243
  191     H        1s       244 -  245
  192     H        1s       246 -  247
  193     H        1s       248 -  249
  194     H        2px      250 +  251
  195     H        2pz      254 -  255
  196     H        2px      256 +  257
  197     H        2pz      260 -  261
  198     H        1s       262 -  263
  199     H        1s       264 -  265
  200     H        1s       266 -  267
  201     H        2px      268 +  269
  202     H        2pz      272 -  273
  203     H        2px      274 +  275
  204     H        2pz      278 -  279
  205     H        2px      283
  206     H        2px      286


  Symmetry  B2 ( 3)

  207     C        2py        7
  208     C        2py       10
  209     C        2py       13
  210     C        2py       16
  211     C        3d1-      19
  212     C        3d1-      24
  213     C        2py       40 +   41
  214     C        2py       46 +   47
  215     C        2py       52 +   53
  216     C        2py       58 +   59
  217     C        3d2-      62 -   63
  218     C        3d1-      64 +   65
  219     C        3d2-      72 -   73
  220     C        3d1-      74 +   75
  221     C        2py       94 +   95
  222     C        2py      100 +  101
  223     C        2py      106 +  107
  224     C        2py      112 +  113
  225     C        3d2-     116 -  117
  226     C        3d1-     118 +  119
  227     C        3d2-     126 -  127
  228     C        3d1-     128 +  129
  229     C        2py      142
  230     C        2py      145
  231     C        2py      148
  232     C        2py      151
  233     C        3d1-     154
  234     C        3d1-     159
  235     N        2py      169
  236     N        2py      172
  237     N        2py      175
  238     N        2py      178
  239     N        3d1-     181
  240     N        3d1-     186
  241     O        2py      202 +  203
  242     O        2py      208 +  209
  243     O        2py      214 +  215
  244     O        2py      220 +  221
  245     O        3d2-     224 -  225
  246     O        3d1-     226 +  227
  247     O        3d2-     234 -  235
  248     O        3d1-     236 +  237
  249     H        2py      252 +  253
  250     H        2py      258 +  259
  251     H        2py      270 +  271
  252     H        2py      276 +  277
  253     H        2py      284
  254     H        2py      287


  Symmetry  A2 ( 4)

  255     C        3d2-      18
  256     C        3d2-      23
  257     C        2py       40 -   41
  258     C        2py       46 -   47
  259     C        2py       52 -   53
  260     C        2py       58 -   59
  261     C        3d2-      62 +   63
  262     C        3d1-      64 -   65
  263     C        3d2-      72 +   73
  264     C        3d1-      74 -   75
  265     C        2py       94 -   95
  266     C        2py      100 -  101
  267     C        2py      106 -  107
  268     C        2py      112 -  113
  269     C        3d2-     116 +  117
  270     C        3d1-     118 -  119
  271     C        3d2-     126 +  127
  272     C        3d1-     128 -  129
  273     C        3d2-     153
  274     C        3d2-     158
  275     N        3d2-     180
  276     N        3d2-     185
  277     O        2py      202 -  203
  278     O        2py      208 -  209
  279     O        2py      214 -  215
  280     O        2py      220 -  221
  281     O        3d2-     224 +  225
  282     O        3d1-     226 -  227
  283     O        3d2-     234 +  235
  284     O        3d1-     236 -  237
  285     H        2py      252 -  253
  286     H        2py      258 -  259
  287     H        2py      270 -  271
  288     H        2py      276 -  277

  Symmetries of electric field:  B1 (2)  B2 (3)  A1 (1)

  Symmetries of magnetic field:  B2 (3)  B1 (2)  A2 (4)


                     .---------------------------------------.
                     | Starting in Integral Section (HERMIT) |
                     `---------------------------------------'



 ***************************************************************************************
 ****************** Output from **INTEGRALS input processing (HERMIT) ******************
 ***************************************************************************************


 - Using defaults, no **INTEGRALS input found

 Default print level:        1

 Calculation of one-electron Hamiltonian integrals.

 Center of mass  (bohr):      0.000000000000      0.000000000000     -0.339696891330
 Operator center (bohr):      0.000000000000      0.000000000000      0.000000000000
 Gauge origin    (bohr):      0.000000000000      0.000000000000      0.000000000000
 Dipole origin   (bohr):      0.000000000000      0.000000000000      0.000000000000


     ************************************************************************
     ************************** Output from HERINT **************************
     ************************************************************************



                      Nuclear contribution to dipole moments
                      --------------------------------------

                 au               Debye          C m (/(10**-30)

      z    -29.68950647       -75.46319344      -251.71811842


  Time used in GABGEN     is       0.11 seconds
  Total CPU  time used in HERMIT:   0.42 seconds
  Total wall time used in HERMIT:   0.43 seconds


                        .----------------------------------.
                        | End of Integral Section (HERMIT) |
                        `----------------------------------'



                   .--------------------------------------------.
                   | Starting in Wave Function Section (SIRIUS) |
                   `--------------------------------------------'


 *** Output from Huckel module :

     Using EWMO model:          F
     Using EHT  model:          T
     Number of Huckel orbitals each symmetry:   24   17    6    3

 Huckel EHT eigenvalues for symmetry :  1
          -20.697608     -15.706038     -11.414950     -11.394534     -11.376727
          -11.362592      -1.751062      -1.559516      -1.205892      -0.946223
           -0.818860      -0.770893      -0.648375      -0.592998      -0.501213
           -0.430897      -0.320679      -0.245026      -0.225169      -0.213705
           -0.205835      -0.178723      -0.166479      -0.160465

 Huckel EHT eigenvalues for symmetry :  2
          -20.698767     -11.396466     -11.377851      -1.378532      -1.204113
           -0.881052      -0.647578      -0.558297      -0.526117      -0.481491
           -0.415320      -0.279592      -0.213368      -0.202799      -0.176242
           -0.165401      -0.163252

 Huckel EHT eigenvalues for symmetry :  3
           -0.799583      -0.674962      -0.468076      -0.384239      -0.281682
           -0.236531

 Huckel EHT eigenvalues for symmetry :  4
           -0.588282      -0.460275      -0.288871

 **********************************************************************
 *SIRIUS* a direct, restricted step, second order MCSCF program       *
 **********************************************************************

 
     Date and time (Linux)  : Thu Feb  6 12:30:00 2020
     Host name              : Lab2-333-NPs                            

 Title lines from ".mol" input file:
      nitrobenzene                                                           
      Generated by the Dalton Input File Plugin for Avogadro                 

 Print level on unit LUPRI =   2 is   0
 Print level on unit LUW4  =   2 is   5

@    MC-SCF optimization.

@    Multi-configurational response calculation.
@              Type: complete active space calculation (CAS).

@    This is a combination run starting with
@              a restricted, closed shell Hartree-Fock calculation
@              an MP2 calculation

 Fock matrices are calculated directly without use of integrals on disk.

 Initial molecular orbitals are obtained according to
 ".MOSTART EHT   " input option

     Wave function specification
     ============================
@    Wave function type        --- MC-SCF ---
@    Number of closed shell electrons          54
@    Number of electrons in active shells      10
@    Total charge of the molecule               0

@    Spin multiplicity and 2 M_S                3         2
@    Total number of symmetries                 4 (point group: C2v)
@    Reference state symmetry                   1 (irrep name : A1 )

     Orbital specifications
     ======================
@    Abelian symmetry species          All |    1    2    3    4
@                                          |  A1   B1   B2   A2 
                                       --- |  ---  ---  ---  ---
@    Inactive orbitals                  27 |   15   10    2    0
@    Active orbitals                     7 |    1    1    2    3
@    Secondary orbitals                254 |   99   80   44   31
@    Total number of orbitals          288 |  115   91   48   34
@    Number of basis functions         288 |  115   91   48   34

      ** Automatic occupation of RHF orbitals **

      -- Initial occupation of symmetries is determined from extended Huckel guess.           
      -- Initial occupation of symmetries is :
@    Occupied SCF orbitals              32 |   16   11    3    2

     Optimization information
     ========================
@    Number of determinants                  56
@    Number of orbital rotations           2762
     ------------------------------------------
@    Total number of variables             2818

     Maximum number of macro iterations      40
     Maximum number of micro iterations     960
     Threshold for MCSCF gradient      1.00D-05
     Number of initial trial vectors          2
     Number of initial CI iterations          3
     Number of simultaneous trial vectors     2

@    This calculation converges to state no.   2 for the specified symmetry and spin species.

     Maximum number of NEO/NR iterations  24

    INFORMATION: Switched to "new" integral transformation (from 1988 ;-) )
    because more than 255 basis functions.


 ***********************************************
 ***** DIIS acceleration of SCF iterations *****
 ***********************************************

 C1-DIIS algorithm; max error vectors =    8

 Automatic occupation of symmetries with  64 electrons.

 Iter     Total energy    Error norm  Delta(E)    SCF occupation
 -----------------------------------------------------------------------------
   1  Screening settings (-IFTHRS, JTDIIS, DIFDEN, times)   -8    1    T  2.83D+01  2.83D+01
@  1  -432.211084462       6.51D+00  -4.32D+02    16  11   3   2
      Virial theorem: -V/T =      1.998429
@    MULPOP   C       0.36; C   _1  0.26; C   _2  0.26; C   _1  0.25; C   _2  0.25; C       0.37; N       1.28; O   _1 -1.03; O   _2 -1.03; H   _1 -0.20; 
@             H   _2 -0.20; H   _1 -0.18; H   _2 -0.18; H      -0.19; 
   1  Level shift: doubly occupied orbital energies shifted by -2.00D-01
 -----------------------------------------------------------------------------
   2  Screening settings (-IFTHRS, JTDIIS, DIFDEN, times)   -8    2    T  2.82D+01  2.82D+01
@  2  -433.808578047       3.01D+00  -1.60D+00    16  11   3   2
      Virial theorem: -V/T =      2.001432
@    MULPOP   C       1.10; C   _1  0.25; C   _2  0.25; C   _1  0.36; C   _2  0.36; C       0.39; N       0.25; O   _1 -0.50; O   _2 -0.50; H   _1 -0.39; 
@             H   _2 -0.39; H   _1 -0.39; H   _2 -0.39; H      -0.40; 
   2  Level shift: doubly occupied orbital energies shifted by -1.00D-01
 -----------------------------------------------------------------------------
   3  Screening settings (-IFTHRS, JTDIIS, DIFDEN, times)   -8    3    T  2.85D+01  2.86D+01
@  3  -434.197451083       7.35D-01  -3.89D-01    16  11   3   2
      Virial theorem: -V/T =      2.000691
@    MULPOP   C       1.83; C   _1  0.18; C   _2  0.18; C   _1  0.46; C   _2  0.46; C       0.28; N       0.62; O   _1 -0.90; O   _2 -0.90; H   _1 -0.45; 
@             H   _2 -0.45; H   _1 -0.44; H   _2 -0.44; H      -0.44; 
   3  Level shift: doubly occupied orbital energies shifted by -2.50D-02
 -----------------------------------------------------------------------------
   4  Screening settings (-IFTHRS, JTDIIS, DIFDEN, times)   -8    4    T  2.80D+01  2.80D+01
@  4  -434.224318384       1.92D-01  -2.69D-02    16  11   3   2
      Virial theorem: -V/T =      2.002576
@    MULPOP   C       1.95; C   _1  0.13; C   _2  0.13; C   _1  0.51; C   _2  0.51; C       0.29; N       0.45; O   _1 -0.86; O   _2 -0.86; H   _1 -0.44; 
@             H   _2 -0.44; H   _1 -0.45; H   _2 -0.45; H      -0.46; 
   4  Level shift: doubly occupied orbital energies shifted by -1.25D-02
 -----------------------------------------------------------------------------
   5  Screening settings (-IFTHRS, JTDIIS, DIFDEN, times)  -10    5    F  2.91D+01  2.92D+01
@  5  -434.227152021       5.64D-02  -2.83D-03    16  11   3   2
      Virial theorem: -V/T =      2.001985
@    MULPOP   C       1.97; C   _1  0.12; C   _2  0.12; C   _1  0.50; C   _2  0.50; C       0.27; N       0.45; O   _1 -0.87; O   _2 -0.87; H   _1 -0.43; 
@             H   _2 -0.43; H   _1 -0.44; H   _2 -0.44; H      -0.44; 
 -----------------------------------------------------------------------------
   6  Screening settings (-IFTHRS, JTDIIS, DIFDEN, times)  -10    6    T  2.91D+01  2.91D+01
@  6  -434.227497552       1.57D-02  -3.46D-04    16  11   3   2
      Virial theorem: -V/T =      2.001904
@    MULPOP   C       1.99; C   _1  0.11; C   _2  0.11; C   _1  0.50; C   _2  0.50; C       0.27; N       0.43; O   _1 -0.87; O   _2 -0.87; H   _1 -0.43; 
@             H   _2 -0.43; H   _1 -0.44; H   _2 -0.44; H      -0.44; 
 -----------------------------------------------------------------------------
   7  Screening settings (-IFTHRS, JTDIIS, DIFDEN, times)  -13    7    F  2.88D+01  2.88D+01
@  7  -434.227530945       6.20D-03  -3.34D-05    16  11   3   2
      Virial theorem: -V/T =      2.001941
@    MULPOP   C       2.00; C   _1  0.10; C   _2  0.10; C   _1  0.50; C   _2  0.50; C       0.27; N       0.43; O   _1 -0.87; O   _2 -0.87; H   _1 -0.43; 
@             H   _2 -0.43; H   _1 -0.44; H   _2 -0.44; H      -0.44; 
 -----------------------------------------------------------------------------
   8  Screening settings (-IFTHRS, JTDIIS, DIFDEN, times)  -13    8    T  2.86D+01  2.86D+01
@  8  -434.227536050       2.14D-03  -5.10D-06    16  11   3   2
      Virial theorem: -V/T =      2.001929
@    MULPOP   C       2.00; C   _1  0.10; C   _2  0.10; C   _1  0.50; C   _2  0.50; C       0.27; N       0.43; O   _1 -0.87; O   _2 -0.87; H   _1 -0.43; 
@             H   _2 -0.43; H   _1 -0.44; H   _2 -0.44; H      -0.44; 
 -----------------------------------------------------------------------------
   9  Screening settings (-IFTHRS, JTDIIS, DIFDEN, times)  -13    9    T  2.86D+01  2.86D+01
@  9  -434.227536643       7.06D-04  -5.93D-07    16  11   3   2
      Virial theorem: -V/T =      2.001927
@    MULPOP   C       2.00; C   _1  0.10; C   _2  0.10; C   _1  0.50; C   _2  0.50; C       0.27; N       0.42; O   _1 -0.87; O   _2 -0.87; H   _1 -0.43; 
@             H   _2 -0.43; H   _1 -0.44; H   _2 -0.44; H      -0.44; 
 -----------------------------------------------------------------------------
  10  Screening settings (-IFTHRS, JTDIIS, DIFDEN, times)  -13   10    T  2.86D+01  2.86D+01
@ 10  -434.227536711       2.48D-04  -6.82D-08    16  11   3   2
      Virial theorem: -V/T =      2.001928
@    MULPOP   C       2.00; C   _1  0.10; C   _2  0.10; C   _1  0.50; C   _2  0.50; C       0.27; N       0.42; O   _1 -0.87; O   _2 -0.87; H   _1 -0.43; 
@             H   _2 -0.43; H   _1 -0.44; H   _2 -0.44; H      -0.44; 
 -----------------------------------------------------------------------------
  11  Screening settings (-IFTHRS, JTDIIS, DIFDEN, times)  -13   11    T  2.96D+01  2.96D+01
@ 11  -434.227536724       1.01D-04  -1.31D-08    16  11   3   2
      Virial theorem: -V/T =      2.001928
@    MULPOP   C       2.00; C   _1  0.10; C   _2  0.10; C   _1  0.50; C   _2  0.50; C       0.27; N       0.42; O   _1 -0.87; O   _2 -0.87; H   _1 -0.43; 
@             H   _2 -0.43; H   _1 -0.44; H   _2 -0.44; H      -0.44; 
 -----------------------------------------------------------------------------
  12  Screening settings (-IFTHRS, JTDIIS, DIFDEN, times)  -13   12    T  2.88D+01  2.88D+01
@ 12  -434.227536727       4.46D-05  -2.77D-09    16  11   3   2
      Virial theorem: -V/T =      2.001928
@    MULPOP   C       2.00; C   _1  0.10; C   _2  0.10; C   _1  0.50; C   _2  0.50; C       0.27; N       0.42; O   _1 -0.87; O   _2 -0.87; H   _1 -0.43; 
@             H   _2 -0.43; H   _1 -0.44; H   _2 -0.44; H      -0.44; 
 -----------------------------------------------------------------------------
  13  Screening settings (-IFTHRS, JTDIIS, DIFDEN, times)  -13   13    T  2.84D+01  2.84D+01
@ 13  -434.227536727       2.37D-05  -4.44D-10    16  11   3   2
      Virial theorem: -V/T =      2.001928
@    MULPOP   C       2.00; C   _1  0.10; C   _2  0.10; C   _1  0.50; C   _2  0.50; C       0.27; N       0.42; O   _1 -0.87; O   _2 -0.87; H   _1 -0.43; 
@             H   _2 -0.43; H   _1 -0.44; H   _2 -0.44; H      -0.44; 
 -----------------------------------------------------------------------------
  14  Screening settings (-IFTHRS, JTDIIS, DIFDEN, times)  -13   14    T  2.85D+01  2.85D+01
@ 14  -434.227536728       8.04D-06  -1.85D-10    16  11   3   2
      Virial theorem: -V/T =      2.001928
@    MULPOP   C       2.00; C   _1  0.10; C   _2  0.10; C   _1  0.50; C   _2  0.50; C       0.27; N       0.42; O   _1 -0.87; O   _2 -0.87; H   _1 -0.43; 
@             H   _2 -0.43; H   _1 -0.44; H   _2 -0.44; H      -0.44; 
 -----------------------------------------------------------------------------
  15  Screening settings (-IFTHRS, JTDIIS, DIFDEN, times)  -13   15    T  2.82D+01  2.82D+01
@ 15  -434.227536728       2.91D-06  -1.05D-11    16  11   3   2
      Virial theorem: -V/T =      2.001928
@    MULPOP   C       2.00; C   _1  0.10; C   _2  0.10; C   _1  0.50; C   _2  0.50; C       0.27; N       0.42; O   _1 -0.87; O   _2 -0.87; H   _1 -0.43; 
@             H   _2 -0.43; H   _1 -0.44; H   _2 -0.44; H      -0.44; 
 -----------------------------------------------------------------------------
  16  Screening settings (-IFTHRS, JTDIIS, DIFDEN, times)  -13   16    T  2.83D+01  2.83D+01
@ 16  -434.227536728       1.31D-06  -1.09D-11    16  11   3   2
      Virial theorem: -V/T =      2.001928
@    MULPOP   C       2.00; C   _1  0.10; C   _2  0.10; C   _1  0.50; C   _2  0.50; C       0.27; N       0.42; O   _1 -0.87; O   _2 -0.87; H   _1 -0.43; 
@             H   _2 -0.43; H   _1 -0.44; H   _2 -0.44; H      -0.44; 
 -----------------------------------------------------------------------------
  17  Screening settings (-IFTHRS, JTDIIS, DIFDEN, times)  -13   17    T  2.81D+01  2.81D+01
@ 17  -434.227536728       5.20D-07  -5.46D-12    16  11   3   2

@ *** DIIS converged in  17 iterations !
@     Converged SCF energy, gradient:   -434.227536727617    5.20D-07
    - total time used in SIRFCK :              0.00 seconds

 --- Writing SIRIFC interface file

 CPU and wall time for SCF :     486.453     486.726


 ----- Output from SIRIUS MP2 module -----

 Reference: H.J.Aa.Jensen, P.Jorgensen, H.Agren, and J.Olsen,
            J. Chem. Phys. 88, 3834 (1988); 89, 5354 (1988)

 Checking that the closed shell orbitals are canonical Hartree-Fock orbitals

    Number of electrons  :   64
    Closed shell orbitals:   16   11    3    2

 Generating Fock matrix

 Hartree-Fock electronic energy:        -845.102667727487
 Hartree-Fock total      energy:        -434.227536727603

 Hartree-Fock orbital energies, symmetry 1 ( A1 ),   16 occupied SCF orbitals

       -20.60177903   -15.85593491   -11.32893277   -11.29040261   -11.28659119
       -11.27869940    -1.61178908    -1.20901590    -1.10279322    -0.96808442
        -0.83224759    -0.78014536    -0.71547031    -0.65632535    -0.56251976
        -0.50478733     0.02513897     0.04341085     0.06195092     0.10373746
         0.13006844     0.13395685     0.14919961     0.15651186     0.17282844
         0.18242085     0.21179660     0.25722503     0.28865089     0.29724118
         0.31730841     0.33437211     0.34722068     0.35098263     0.37042860
         0.39624337     0.41176921     0.42363291     0.45305474     0.48294104
         0.52263962     0.55848747     0.57454244     0.60667985     0.63051768
         0.65015808     0.65627616     0.67367717     0.72476623     0.73889643
         0.74197920     0.83327031     0.88713889     0.93827534     0.95142824
         0.96671530     1.00300718     1.07010133     1.08301297     1.13397059
         1.26496119     1.35629431     1.37229065     1.45094595     1.48891502
         1.50827428     1.53569210     1.56322597     1.57502683     1.60584639
         1.67347896     1.71024603     1.74341165     1.78372979     1.86969608
         1.93305673     1.94888717     2.00484075     2.02367521     2.14271237
         2.19480637     2.23675019     2.30033712     2.36405632     2.41876583
         2.44525566     2.53748037     2.67712653     2.75163052     2.81441580
         2.88502312     2.94100001     3.03397363     3.13909024     3.26774586
         3.40219248     3.74754598     4.03403976     4.06592573     4.23539826
        19.80578354    20.32867979    20.45067430    20.61490489    23.34799771
        23.41458140    23.43444174    23.81589898    23.91175418    24.11791436
        27.05955318    31.29300397    35.74726407    39.66913860    39.77399503

 Hartree-Fock orbital energies, symmetry 2 ( B1 ),   11 occupied SCF orbitals

       -20.60184215   -11.29043987   -11.27880110    -1.38030518    -1.06092235
        -0.87286000    -0.72067332    -0.66042036    -0.63048113    -0.53719453
        -0.47289865     0.03493695     0.05981726     0.12937035     0.13191320
         0.15215786     0.17482351     0.18262387     0.21382053     0.26181284
         0.28804259     0.31199951     0.33374168     0.35836427     0.36645890
         0.39221646     0.42015760     0.43627481     0.45117958     0.56420700
         0.57249512     0.58402121     0.64552202     0.65870041     0.67567397
         0.69442218     0.75510533     0.76192021     0.82574097     0.84359817
         0.86028826     0.91638525     1.01806289     1.14402712     1.20325627
         1.24350462     1.34317640     1.38605028     1.40234447     1.48218343
         1.57407399     1.58296717     1.61920112     1.63632345     1.69723067
         1.75496886     1.76610330     1.78948550     1.88098009     1.92638071
         2.01075160     2.08327219     2.23246149     2.26411799     2.33770278
         2.34677747     2.38382226     2.51094435     2.58259216     2.76201139
         2.89375084     2.93912177     3.11146776     3.30280548     3.36013668
         3.41157145     3.74628918     3.83068394     4.21709500    20.28957060
        20.46962907    22.88965573    23.33092373    23.37806611    23.93510324
        24.11552988    24.30255522    31.42950273    35.60333067    39.66013162
        40.10069567

 Hartree-Fock orbital energies, symmetry 3 ( B2 ),    3 occupied SCF orbitals

        -0.71489517    -0.54246311    -0.38378995     0.03178827     0.10455765
         0.12483808     0.13692085     0.18256769     0.19066985     0.24835679
         0.31472366     0.33924643     0.37637006     0.44386874     0.53138674
         0.58417544     0.64089840     0.71153403     0.78661098     0.84477511
         0.86702872     0.91737601     0.92224804     0.98702390     1.14006883
         1.25582224     1.28673097     1.46850319     1.47536761     1.60938009
         1.66964192     1.70259191     1.82741336     1.89694038     1.98648112
         2.07780788     2.17105116     2.29456627     2.54230894     2.67390988
         3.65912456     3.82343218    22.53779525    22.68657813    22.82250476
        23.02095551    30.56031471    39.42539905

 Hartree-Fock orbital energies, symmetry 4 ( A2 ),    2 occupied SCF orbitals

        -0.44234662    -0.37437813     0.08178526     0.12951184     0.18432582
         0.29942128     0.41050253     0.48836698     0.54235842     0.65406794
         0.73259083     0.89203704     0.89582538     0.93863532     1.04271368
         1.07995786     1.21198751     1.25653042     1.34931643     1.47823801
         1.66703046     1.68442085     1.85746434     1.97767432     2.11129584
         2.20283197     2.34837993     2.47944278     2.60051496     3.66645091
         3.97762121    22.68701594    22.85330236    39.49805451

    E(LUMO) :     0.02513897   (in symmetry 1)
  - E(HOMO) :    -0.37437813   (in symmetry 4)
  --------------------------
    gap     :     0.39951710

---> (Re)generating AOTWOINT


     ************************************************************************
     ************************** Output from HERINT **************************
     ************************************************************************


 Threshold for neglecting two-electron integrals:  1.00D-12
 HERMIT - Number of two-electron integrals written:   202828682 ( 23.4% )
 HERMIT - Megabytes written:                           3096.211

  Time used in TWOINT     is      38.84 seconds

 2-el. integral transformation level 5: Total CPU and WALL times (sec)     414.031     415.875

 MP2 move   0.993710 electrons to unoccupied HF orbitals


@   Hartree-Fock total energy   :          -434.2275367276
@   + MP2 contribution          :            -1.7248673876
@   = MP2 second order energy   :          -435.9524041152

 Natural orbital occupation numbers, symmetry 1 (irrep A1 )
 Sum =    32.00639542; RHF =    32.00000000; Difference =     0.00639542

         1.99929051     1.99907562     1.99876146     1.99875641     1.99875164
         1.99874747     1.98704827     1.98415362     1.97949211     1.97233210
         1.96901743     1.96825032     1.96574903     1.96218713     1.95510372
         1.94596408     0.04025010     0.03578748     0.02540196     0.02379797
         0.01926930     0.01861583     0.01725477     0.01640925     0.01374906
         0.01274952     0.01188430     0.00981770     0.00853978     0.00782712
         0.00761639     0.00671115     0.00568611     0.00454627     0.00307723
         0.00295496     0.00273779     0.00263581     0.00222766     0.00202228
         0.00185028     0.00166744     0.00159752     0.00131165     0.00120728
         0.00117309     0.00105885     0.00095997     0.00071229     0.00065003
         0.00061058     0.00053973     0.00049675     0.00045397     0.00044030
         0.00041496     0.00041016     0.00038442     0.00037786     0.00035508
         0.00034397     0.00032628     0.00031517     0.00029641     0.00026668
         0.00025570     0.00022771     0.00022481     0.00020430     0.00019529
         0.00018635     0.00018540     0.00017624     0.00017114     0.00016836
         0.00016156     0.00015550     0.00015141     0.00014007     0.00013265
         0.00012724     0.00012441     0.00012200     0.00011258     0.00010245
         0.00009408     0.00007747     0.00007049     0.00006351     0.00005678
         0.00005227     0.00004184     0.00003399     0.00002748     0.00002198
         0.00001654     0.00001468     0.00001161     0.00001107     0.00000938
         0.00000865     0.00000829     0.00000707     0.00000320     0.00000294
         0.00000190     0.00000113     0.00000056     0.00000034     0.00000019
         0.00000015    -0.00000001    -0.00000010    -0.00000049    -0.00003813

 Natural orbital occupation numbers, symmetry 2 (irrep B1 )
 Sum =    21.95504808; RHF =    22.00000000; Difference =    -0.04495192

         1.99929037     1.99875724     1.99875098     1.98388272     1.98004188
         1.97275136     1.96238980     1.96045201     1.95492292     1.95435280
         1.94683253     0.03961836     0.02536147     0.02377349     0.01938688
         0.01658195     0.01591885     0.01523192     0.01136157     0.01038920
         0.00908287     0.00756883     0.00580572     0.00535016     0.00517975
         0.00366182     0.00311558     0.00278415     0.00241618     0.00212528
         0.00174025     0.00162025     0.00152351     0.00131496     0.00119365
         0.00102951     0.00097609     0.00069267     0.00063859     0.00056256
         0.00048361     0.00043922     0.00042127     0.00037190     0.00035239
         0.00033387     0.00029774     0.00028715     0.00026808     0.00026093
         0.00023933     0.00021044     0.00019754     0.00018811     0.00018256
         0.00017673     0.00016920     0.00016912     0.00016003     0.00015390
         0.00014256     0.00013347     0.00012856     0.00012543     0.00011813
         0.00011297     0.00009378     0.00009035     0.00006989     0.00005013
         0.00004463     0.00003618     0.00002996     0.00002892     0.00002182
         0.00001546     0.00001378     0.00001128     0.00001058     0.00000822
         0.00000466     0.00000383     0.00000169     0.00000122     0.00000062
         0.00000029     0.00000013    -0.00000000    -0.00000024    -0.00000069
        -0.00004336

 Natural orbital occupation numbers, symmetry 3 (irrep B2 )
 Sum =     6.07792338; RHF =     6.00000000; Difference =     0.07792338

         1.95004467     1.94423880     1.90934688     0.10216768     0.06750404
         0.02959058     0.01045400     0.01026659     0.00869235     0.00804755
         0.00622738     0.00532576     0.00450225     0.00392952     0.00342078
         0.00304378     0.00152481     0.00142974     0.00098517     0.00087833
         0.00085471     0.00065823     0.00061166     0.00049816     0.00046985
         0.00041847     0.00033424     0.00028834     0.00025343     0.00023097
         0.00019974     0.00019576     0.00018973     0.00017825     0.00015179
         0.00013094     0.00012200     0.00011025     0.00009968     0.00008276
         0.00007886     0.00006330     0.00003606     0.00002045     0.00001044
         0.00000843     0.00000490     0.00000129

 Natural orbital occupation numbers, symmetry 4 (irrep A2 )
 Sum =     3.96063312; RHF =     4.00000000; Difference =    -0.03936688

         1.91629389     1.90844437     0.06635361     0.01466511     0.01036470
         0.00933564     0.00787295     0.00569723     0.00496311     0.00404074
         0.00358066     0.00153551     0.00123344     0.00093272     0.00077563
         0.00072613     0.00066651     0.00056065     0.00040459     0.00036919
         0.00034044     0.00029083     0.00021677     0.00019686     0.00016529
         0.00013151     0.00011676     0.00010431     0.00009255     0.00006925
         0.00004963     0.00002039     0.00001729     0.00000487

 Time used for MP2 natural orbitals :     446.359 CPU seconds,     448.198 wall seconds.

 CPU and wall time for MP2 :     446.359     448.198


        SIRIUS MCSCF optimization (SIROPT)
 ================================================


 Fock matrix screening setting for SIRCNO: IFTHRS =    9


 ----- Output from SIRIUS CI module (CICTL) -----




 2-el. integral transformation level 0: Total CPU and WALL times (sec)     100.812     100.937


 --- SIRCI.CIST1: plus combination of all degenerate
                 configurations is used as start vectors.


 (CIST1) 18 lowest diagonal elements:

 Element no. Config.no.    Active energy      Total energy

         1 :          1    -17.1050141250   -433.9953882256
         2 :         22    -16.9824922919   -433.8728663925
         3 :         28    -16.8554752130   -433.7458493136
         4 :          6    -16.8380907761   -433.7284648768
         5 :          5    -16.8372757687   -433.7276498693
         6 :          3    -16.7745979966   -433.6649720972
         7 :         24    -16.7462508749   -433.6366249755
         8 :          7    -16.7285870540   -433.6189611547
         9 :          2    -16.7189054316   -433.6092795323
        10 :         23    -16.7001128012   -433.5904869018
        11 :         25    -16.6752161346   -433.5655902352
        12 :         19    -16.6465716559   -433.5369457566
        13 :         29    -16.5587725189   -433.4491466196
        14 :         12    -16.5456888455   -433.4360629461
        15 :         11    -16.5329227419   -433.4232968426
        16 :         27    -16.4246515142   -433.3150256149
        17 :         13    -16.4052647660   -433.2956388666
        18 :         21    -16.3882473702   -433.2786214708


 Convergence threshold for CI optimization :     0.00000500



 *** Reached maximum number of CI iterations:    3
              2 CI roots are not converged.


@ Final CI energies and residuals in symmetry 1 (irrep A1 )
@    1     -434.031643888721078       8.37D-03
@    2     -433.888246200743652       6.49D-03
@    3     -433.824296363214785       4.64D-02
@    4     -433.737821202373937       7.92D-02
@    5     -433.666324526331380       8.69D-02
@    6     -433.663975711157775       1.11D-01

   --- OUTPUT FROM SIRCNO     Keyword = FD+NO 


 Occupations of CAS natural orbitals:

 Symmetry  1 ( irrep A1  in C2v )

   1.999991136

 Symmetry  2 ( irrep B1  in C2v )

   1.999996063

 Symmetry  3 ( irrep B2  in C2v )

   1.011427835   0.988866578

 Symmetry  4 ( irrep A2  in C2v )

   1.989006685   1.962354592   0.048357111


 --- MACRO ITERATION  1 ---
 --------------------------

 2-el. integral transformation level 3: Total CPU and WALL times (sec)     103.016     103.041

 Fock matrix screening setting for this macro iteration: 10^( -9)

 Total MCSCF energy       :          -433.888246200442268  (MACRO    1)

 - Nuclear repulsion      :           410.875130999883879
 - Inactive energy        :          -827.765505101926010
 - Active energy          :           -16.997872098400130

 Norm of total gradient   :             1.322708567452
 -    of CI gradient      :             0.012984981379
 -    of orbital gradient :             1.322644829374
      Virial theorem: -V/T =      1.995132
@    MULPOP   C       1.99; C   _1  0.31; C   _2  0.31; C   _1  0.52; C   _2  0.52; C       0.60; N       0.01; O   _1 -0.95; O   _2 -0.95; H   _1 -0.48; 
@             H   _2 -0.48; H   _1 -0.47; H   _2 -0.47; H      -0.47; 

 (SIRNEO) iteration (  1,  4)
 Micro iteration termination criterion met, EVAL(ISTATE+1) = -9.91D-02

   --- OUTPUT FROM SIRCNO     Keyword = FD+NO 


 Occupations of CAS natural orbitals:

 Symmetry  1 ( irrep A1  in C2v )

   1.999963788

 Symmetry  2 ( irrep B1  in C2v )

   1.999957821

 Symmetry  3 ( irrep B2  in C2v )

   1.149906214   0.862550186

 Symmetry  4 ( irrep A2  in C2v )

   1.981122359   1.825333206   0.181166427


 --- MACRO ITERATION  2 ---
 --------------------------

 2-el. integral transformation level 3: Total CPU and WALL times (sec)     102.703     102.774

 Fock matrix screening setting for this macro iteration: 10^( -9)

 Total MCSCF energy       :          -433.989322562371740  (MACRO    2)

 - Nuclear repulsion      :           410.875130999883879
 - Inactive energy        :          -827.828200749858979
 - Active energy          :           -17.036252812396647

 Norm of total gradient   :             0.892577508679
 -    of CI gradient      :             0.092316802263
 -    of orbital gradient :             0.887790638055
      Virial theorem: -V/T =      1.996984
@    MULPOP   C       2.01; C   _1  0.31; C   _2  0.31; C   _1  0.46; C   _2  0.46; C       0.26; N       0.25; O   _1 -0.85; O   _2 -0.85; H   _1 -0.48; 
@             H   _2 -0.48; H   _1 -0.45; H   _2 -0.45; H      -0.50; 

 Residual norm when dim(red L) =  13
 NEO root     CSF        orbital          total
    1     0.07745586     0.02179819     0.08046472 converged

 (NEONEX) NEO auxiliary root no.  1 is converged.

 Residual norm when dim(red L) =  14
 NEO root     CSF        orbital          total
    2     0.06189229     0.03045322     0.06897866 converged

 (NEONEX) NEO vector is converged.

   --- OUTPUT FROM SIRCNO     Keyword = FD+NO 


 Occupations of CAS natural orbitals:

 Symmetry  1 ( irrep A1  in C2v )

   1.999945638

 Symmetry  2 ( irrep B1  in C2v )

   1.999943297

 Symmetry  3 ( irrep B2  in C2v )

   1.257765381   0.762573860

 Symmetry  4 ( irrep A2  in C2v )

   1.972733631   1.721035812   0.286002380


 --- MACRO ITERATION  3 ---
 --------------------------

 2-el. integral transformation level 3: Total CPU and WALL times (sec)     102.719     102.813

 Fock matrix screening setting for this macro iteration: 10^( -9)

 Total MCSCF energy       :          -434.052381850542531  (MACRO    3)

 - Nuclear repulsion      :           410.875130999883879
 - Inactive energy        :          -827.251875425515095
 - Active energy          :           -17.675637424911340

 Norm of total gradient   :             0.174660405730
 -    of CI gradient      :             0.070263247662
 -    of orbital gradient :             0.159904138026
      Virial theorem: -V/T =      2.000967
@    MULPOP   C       1.96; C   _1  0.15; C   _2  0.15; C   _1  0.54; C   _2  0.54; C       0.26; N       0.47; O   _1 -1.00; O   _2 -1.00; H   _1 -0.42; 
@             H   _2 -0.42; H   _1 -0.42; H   _2 -0.42; H      -0.40; 

 Residual norm when dim(red L) =  12
 NEO root     CSF        orbital          total
    1     0.02743883     0.06223550     0.06801578 converged

 (NEONEX) NEO auxiliary root no.  1 is converged.

 Residual norm when dim(red L) =  18
 NEO root     CSF        orbital          total
    2     0.01870318     0.01214778     0.02230196 converged

 (NEONEX) NEO vector is converged.

   --- OUTPUT FROM SIRCNO     Keyword = FD+NO 


 Occupations of CAS natural orbitals:

 Symmetry  1 ( irrep A1  in C2v )

   1.999929477

 Symmetry  2 ( irrep B1  in C2v )

   1.999943147

 Symmetry  3 ( irrep B2  in C2v )

   1.534942767   0.488027594

 Symmetry  4 ( irrep A2  in C2v )

   1.976369966   1.428565181   0.572221869


 --- MACRO ITERATION  4 ---
 --------------------------

 2-el. integral transformation level 3: Total CPU and WALL times (sec)     103.203     103.276

 Fock matrix screening setting for this macro iteration: 10^( -9)

 Total MCSCF energy       :          -434.054346709480399  (MACRO    4)

 - Nuclear repulsion      :           410.875130999883879
 - Inactive energy        :          -823.432772466711640
 - Active energy          :           -21.496705242652624

 Norm of total gradient   :             0.435799924299
 -    of CI gradient      :             0.052332788062
 -    of orbital gradient :             0.432646337455
      Virial theorem: -V/T =      2.000892
@    MULPOP   C       2.06; C   _1  0.09; C   _2  0.09; C   _1  0.50; C   _2  0.50; C       0.35; N       0.40; O   _1 -0.93; O   _2 -0.93; H   _1 -0.43; 
@             H   _2 -0.43; H   _1 -0.43; H   _2 -0.43; H      -0.42; 

 (SIRSTP) Energy difference;
 actual, predicted and ratio:  -0.001964858937868  -0.006771384878879    0.290171

 (SIRSTP) step is too large -- backstep

   --- OUTPUT FROM SIRCNO     Keyword = FD+NO 


 Occupations of CAS natural orbitals:

 Symmetry  1 ( irrep A1  in C2v )

   1.999895460

 Symmetry  2 ( irrep B1  in C2v )

   1.999928493

 Symmetry  3 ( irrep B2  in C2v )

   1.559820592   0.467998465

 Symmetry  4 ( irrep A2  in C2v )

   1.971126959   1.410492242   0.590737789


 Optimization control: Step was too large, we backstep


 --- MACRO ITERATION  4 BACKSTEP NO.  1 ---

 2-el. integral transformation level 3: Total CPU and WALL times (sec)     102.781     102.892

 Fock matrix screening setting for this macro iteration: 10^( -9)

 Total MCSCF energy       :          -434.055927360091744  (MACRO    4)

 - Nuclear repulsion      :           410.875130999883879
 - Inactive energy        :          -826.594320864989641
 - Active energy          :           -18.336737494985982

 Norm of total gradient   :             0.146664251475
 -    of CI gradient      :             0.028039732616
 -    of orbital gradient :             0.143958938783
      Virial theorem: -V/T =      2.000761
@    MULPOP   C       2.06; C   _1  0.08; C   _2  0.08; C   _1  0.50; C   _2  0.50; C       0.38; N       0.40; O   _1 -0.92; O   _2 -0.92; H   _1 -0.43; 
@             H   _2 -0.43; H   _1 -0.43; H   _2 -0.43; H      -0.42; 

 Residual norm when dim(red L) =   9
 NEO root     CSF        orbital          total
    1     0.04751638     0.06087119     0.07722116 converged

 (NEONEX) NEO auxiliary root no.  1 is converged.

 Residual norm when dim(red L) =  13
 NEO root     CSF        orbital          total
    2     0.02406732     0.01182291     0.02681450 converged

 (NEONEX) NEO vector is converged.

   --- OUTPUT FROM SIRCNO     Keyword = FD+NO 


 Occupations of CAS natural orbitals:

 Symmetry  1 ( irrep A1  in C2v )

   1.999715448

 Symmetry  2 ( irrep B1  in C2v )

   1.999979556

 Symmetry  3 ( irrep B2  in C2v )

   1.576796674   0.437248204

 Symmetry  4 ( irrep A2  in C2v )

   1.985094248   1.387261267   0.613904604


 --- MACRO ITERATION  5 ---
 --------------------------

 2-el. integral transformation level 3: Total CPU and WALL times (sec)     103.109     103.126

 Fock matrix screening setting for this macro iteration: 10^( -9)

 Total MCSCF energy       :          -434.059116828246715  (MACRO    5)

 - Nuclear repulsion      :           410.875130999883879
 - Inactive energy        :          -827.136427436731537
 - Active energy          :           -17.797820391399046

 Norm of total gradient   :             0.047178258640
 -    of CI gradient      :             0.023454431530
 -    of orbital gradient :             0.040935042810
      Virial theorem: -V/T =      2.000784
@    MULPOP   C       2.11; C   _1  0.09; C   _2  0.09; C   _1  0.48; C   _2  0.48; C       0.33; N       0.42; O   _1 -0.92; O   _2 -0.92; H   _1 -0.43; 
@             H   _2 -0.43; H   _1 -0.44; H   _2 -0.44; H      -0.42; 

 Residual norm when dim(red L) =  10
 NEO root     CSF        orbital          total
    1     0.05021767     0.04124644     0.06498525 converged

 (NEONEX) NEO auxiliary root no.  1 is converged.

 (SIRNEO) iteration (  5,  9)
 Micro iteration termination criterion met, EVAL(ISTATE+1) = -1.19D-05

   --- OUTPUT FROM SIRCNO     Keyword = FD+NO 


 Occupations of CAS natural orbitals:

 Symmetry  1 ( irrep A1  in C2v )

   1.999795152

 Symmetry  2 ( irrep B1  in C2v )

   1.999997202

 Symmetry  3 ( irrep B2  in C2v )

   1.597003709   0.405196978

 Symmetry  4 ( irrep A2  in C2v )

   1.997804634   1.279657076   0.720545250


 --- MACRO ITERATION  6 ---
 --------------------------

 2-el. integral transformation level 3: Total CPU and WALL times (sec)     106.266     106.448

 Fock matrix screening setting for this macro iteration: 10^( -9)

 Total MCSCF energy       :          -434.062639278568156  (MACRO    6)

 - Nuclear repulsion      :           410.875130999883879
 - Inactive energy        :          -826.817952088679476
 - Active energy          :           -18.119818189772552

 Norm of total gradient   :             0.050583302797
 -    of CI gradient      :             0.036393216316
 -    of orbital gradient :             0.035131244329
      Virial theorem: -V/T =      2.000652
@    MULPOP   C       2.10; C   _1  0.08; C   _2  0.08; C   _1  0.47; C   _2  0.47; C       0.35; N       0.43; O   _1 -0.90; O   _2 -0.90; H   _1 -0.44; 
@             H   _2 -0.44; H   _1 -0.44; H   _2 -0.44; H      -0.43; 

 Residual norm when dim(red L) =  10
 NEO root     CSF        orbital          total
    1     0.04057596     0.06008766     0.07250472 converged

 (NEONEX) NEO auxiliary root no.  1 is converged.

 (SIRNEO) iteration (  6, 16)
 Micro iteration termination criterion met, EVAL(ISTATE+1) = -4.86D-05

   --- OUTPUT FROM SIRCNO     Keyword = FD+NO 


 Occupations of CAS natural orbitals:

 Symmetry  1 ( irrep A1  in C2v )

   1.999712006

 Symmetry  2 ( irrep B1  in C2v )

   1.999997938

 Symmetry  3 ( irrep B2  in C2v )

   1.470782215   0.530233319

 Symmetry  4 ( irrep A2  in C2v )

   1.999148992   1.401856903   0.598268627


 --- MACRO ITERATION  7 ---
 --------------------------

 2-el. integral transformation level 3: Total CPU and WALL times (sec)     105.812     106.134

 Fock matrix screening setting for this macro iteration: 10^( -9)

 Total MCSCF energy       :          -434.062753985699374  (MACRO    7)

 - Nuclear repulsion      :           410.875130999883879
 - Inactive energy        :          -826.427274352478889
 - Active energy          :           -18.510610633104363

 Norm of total gradient   :             0.016138755482
 -    of CI gradient      :             0.009976714963
 -    of orbital gradient :             0.012685605505
      Virial theorem: -V/T =      2.000705
@    MULPOP   C       2.10; C   _1  0.09; C   _2  0.09; C   _1  0.47; C   _2  0.47; C       0.33; N       0.45; O   _1 -0.89; O   _2 -0.89; H   _1 -0.44; 
@             H   _2 -0.44; H   _1 -0.44; H   _2 -0.44; H      -0.44; 

 (SIRSTP) Energy difference;
 actual, predicted and ratio:  -0.000114707131218  -0.000375014380714    0.305874

 (SIRSTP) step is too large -- backstep

   --- OUTPUT FROM SIRCNO     Keyword = FD+NO 


 Occupations of CAS natural orbitals:

 Symmetry  1 ( irrep A1  in C2v )

   1.999786511

 Symmetry  2 ( irrep B1  in C2v )

   1.999999011

 Symmetry  3 ( irrep B2  in C2v )

   1.470748326   0.530209977

 Symmetry  4 ( irrep A2  in C2v )

   1.999139572   1.401669500   0.598447102


 Optimization control: Step was too large, we backstep


 --- MACRO ITERATION  7 BACKSTEP NO.  1 ---

 2-el. integral transformation level 3: Total CPU and WALL times (sec)     106.484     106.650

 Fock matrix screening setting for this macro iteration: 10^( -9)

 Total MCSCF energy       :          -434.062731121146726  (MACRO    7)

 - Nuclear repulsion      :           410.875130999883879
 - Inactive energy        :          -826.629028215857716
 - Active energy          :           -18.308833905172897

 Norm of total gradient   :             0.013933093934
 -    of CI gradient      :             0.007282402592
 -    of orbital gradient :             0.011878456089
      Virial theorem: -V/T =      2.000698
@    MULPOP   C       2.10; C   _1  0.09; C   _2  0.09; C   _1  0.47; C   _2  0.47; C       0.33; N       0.45; O   _1 -0.89; O   _2 -0.89; H   _1 -0.44; 
@             H   _2 -0.44; H   _1 -0.44; H   _2 -0.44; H      -0.44; 

 (SIRSTP) Energy difference;
 actual, predicted and ratio:  -0.000091842578570  -0.000330451479153    0.277931

 (SIRSTP) step is too large -- backstep

   --- OUTPUT FROM SIRCNO     Keyword = FD+NO 


 Occupations of CAS natural orbitals:

 Symmetry  1 ( irrep A1  in C2v )

   1.999834702

 Symmetry  2 ( irrep B1  in C2v )

   1.999999275

 Symmetry  3 ( irrep B2  in C2v )

   1.469412444   0.531535278

 Symmetry  4 ( irrep A2  in C2v )

   1.999108605   1.402984877   0.597124819


 Optimization control: Step was too large, we backstep


 --- MACRO ITERATION  7 BACKSTEP NO.  2 ---

 2-el. integral transformation level 3: Total CPU and WALL times (sec)     103.719     103.803

 Fock matrix screening setting for this macro iteration: 10^( -9)

 Total MCSCF energy       :          -434.062717061848844  (MACRO    7)

 - Nuclear repulsion      :           410.875130999883879
 - Inactive energy        :          -826.770743043640209
 - Active energy          :           -18.167105018092528

 Norm of total gradient   :             0.013436220312
 -    of CI gradient      :             0.006639130618
 -    of orbital gradient :             0.011681350988
      Virial theorem: -V/T =      2.000696
[...]
      ----------------------------------------------------------------
         1    1.66831D+01  1.45D+01  8.23D+00  6.19D+02    1.16800D-01

 ** RSPCTL MICROITERATION NUMBER   10

 *** INFO, negative eigenvalues in reduced matrix. Symmetry  1,  triplet       F Dimension of reduced matrix =    22

 GP * SOLUTION vector at frequency     0.11680 a.u.
 after   11 linear transformations is      1.28032443D+04
 INERTIA (POS,ZER,NEG) of reduced matrix is   21    0    1
 Determinant of reduced matrix is -1.15 * 10 **-18.0

       No.  Residual tot.,    conf., and orb.    Bnorm      Frequency 
      ----------------------------------------------------------------
         1    1.16868D+01  2.70D+00  1.14D+01  7.42D+02    1.16800D-01

 ** RSPCTL MICROITERATION NUMBER   11

 *** INFO, negative eigenvalues in reduced matrix. Symmetry  1,  triplet       F Dimension of reduced matrix =    24

 GP * SOLUTION vector at frequency     0.11680 a.u.
 after   12 linear transformations is      1.28839834D+04
 INERTIA (POS,ZER,NEG) of reduced matrix is   23    0    1
 Determinant of reduced matrix is -3.44 * 10 **-22.0

       No.  Residual tot.,    conf., and orb.    Bnorm      Frequency 
      ----------------------------------------------------------------
         1    6.89365D+00  3.52D+00  5.93D+00  7.75D+02    1.16800D-01

 ** RSPCTL MICROITERATION NUMBER   12

 *** INFO, negative eigenvalues in reduced matrix. Symmetry  1,  triplet       F Dimension of reduced matrix =    26

 GP * SOLUTION vector at frequency     0.11680 a.u.
 after   13 linear transformations is      1.29042354D+04
 INERTIA (POS,ZER,NEG) of reduced matrix is   25    0    1
 Determinant of reduced matrix is -1.38 * 10 **-24.0

       No.  Residual tot.,    conf., and orb.    Bnorm      Frequency 
      ----------------------------------------------------------------
         1    4.50726D+00  3.83D+00  2.37D+00  7.85D+02    1.16800D-01

 ** RSPCTL MICROITERATION NUMBER   13

 *** INFO, negative eigenvalues in reduced matrix. Symmetry  1,  triplet       F Dimension of reduced matrix =    28

 GP * SOLUTION vector at frequency     0.11680 a.u.
 after   14 linear transformations is      1.29320189D+04
 INERTIA (POS,ZER,NEG) of reduced matrix is   27    0    1
 Determinant of reduced matrix is -2.47 * 10 **-25.0

       No.  Residual tot.,    conf., and orb.    Bnorm      Frequency 
      ----------------------------------------------------------------
         1    3.85408D+00  2.36D+00  3.05D+00  8.00D+02    1.16800D-01

 ** RSPCTL MICROITERATION NUMBER   14

 *** INFO, negative eigenvalues in reduced matrix. Symmetry  1,  triplet       F Dimension of reduced matrix =    30

 GP * SOLUTION vector at frequency     0.11680 a.u.
 after   15 linear transformations is      1.29389259D+04
 INERTIA (POS,ZER,NEG) of reduced matrix is   29    0    1
 Determinant of reduced matrix is -1.43 * 10 **-28.0

       No.  Residual tot.,    conf., and orb.    Bnorm      Frequency 
      ----------------------------------------------------------------
         1    3.32282D+00  2.77D+00  1.84D+00  8.02D+02    1.16800D-01

 ** RSPCTL MICROITERATION NUMBER   15

 *** INFO, negative eigenvalues in reduced matrix. Symmetry  1,  triplet       F Dimension of reduced matrix =    32

 GP * SOLUTION vector at frequency     0.11680 a.u.
 after   16 linear transformations is      1.29509387D+04
 INERTIA (POS,ZER,NEG) of reduced matrix is   31    0    1
 Determinant of reduced matrix is -5.48 * 10 **-29.0

       No.  Residual tot.,    conf., and orb.    Bnorm      Frequency 
      ----------------------------------------------------------------
         1    2.98627D+00  3.80D-01  2.96D+00  8.09D+02    1.16800D-01

 ** RSPCTL MICROITERATION NUMBER   16

 *** INFO, negative eigenvalues in reduced matrix. Symmetry  1,  triplet       F Dimension of reduced matrix =    34

 GP * SOLUTION vector at frequency     0.11680 a.u.
 after   17 linear transformations is      1.29629090D+04
 INERTIA (POS,ZER,NEG) of reduced matrix is   33    0    1
 Determinant of reduced matrix is -9.07 * 10 **-32.0

       No.  Residual tot.,    conf., and orb.    Bnorm      Frequency 
      ----------------------------------------------------------------
         1    3.37190D+00  8.51D-01  3.26D+00  8.20D+02    1.16800D-01

 ** RSPCTL MICROITERATION NUMBER   17

 *** INFO, negative eigenvalues in reduced matrix. Symmetry  1,  triplet       F Dimension of reduced matrix =    36

 GP * SOLUTION vector at frequency     0.11680 a.u.
 after   18 linear transformations is      1.30536213D+04
 INERTIA (POS,ZER,NEG) of reduced matrix is   35    0    1
 Determinant of reduced matrix is -2.24 * 10 **-35.0

       No.  Residual tot.,    conf., and orb.    Bnorm      Frequency 
      ----------------------------------------------------------------
         1    1.89511D+01  8.73D+00  1.68D+01  9.58D+02    1.16800D-01

 ** RSPCTL MICROITERATION NUMBER   18

 *** INFO, negative eigenvalues in reduced matrix. Symmetry  1,  triplet       F Dimension of reduced matrix =    38

 GP * SOLUTION vector at frequency     0.11680 a.u.
 after   19 linear transformations is      1.28604323D+04
 INERTIA (POS,ZER,NEG) of reduced matrix is   36    0    2
 Determinant of reduced matrix is  6.82 * 10 **-38.0

       No.  Residual tot.,    conf., and orb.    Bnorm      Frequency 
      ----------------------------------------------------------------
         1    1.07350D+01  8.57D+00  6.46D+00  7.55D+02    1.16800D-01

 ** RSPCTL MICROITERATION NUMBER   19

 *** INFO, negative eigenvalues in reduced matrix. Symmetry  1,  triplet       F Dimension of reduced matrix =    40

 GP * SOLUTION vector at frequency     0.11680 a.u.
 after   20 linear transformations is      1.29084854D+04
 INERTIA (POS,ZER,NEG) of reduced matrix is   38    0    2
 Determinant of reduced matrix is  2.35 * 10 **-38.0

       No.  Residual tot.,    conf., and orb.    Bnorm      Frequency 
      ----------------------------------------------------------------
         1    3.87935D+00  1.22D+00  3.68D+00  7.74D+02    1.16800D-01

 ** RSPCTL MICROITERATION NUMBER   20

 *** INFO, negative eigenvalues in reduced matrix. Symmetry  1,  triplet       F Dimension of reduced matrix =    42

 GP * SOLUTION vector at frequency     0.11680 a.u.
 after   21 linear transformations is      1.29145114D+04
 INERTIA (POS,ZER,NEG) of reduced matrix is   40    0    2
 Determinant of reduced matrix is  2.77 * 10 **-41.0

       No.  Residual tot.,    conf., and orb.    Bnorm      Frequency 
      ----------------------------------------------------------------
         1    1.72605D+00  1.28D+00  1.16D+00  7.78D+02    1.16800D-01

 ** RSPCTL MICROITERATION NUMBER   21

 *** INFO, negative eigenvalues in reduced matrix. Symmetry  1,  triplet       F Dimension of reduced matrix =    44

 GP * SOLUTION vector at frequency     0.11680 a.u.
 after   22 linear transformations is      1.29172853D+04
 INERTIA (POS,ZER,NEG) of reduced matrix is   42    0    2
 Determinant of reduced matrix is  5.11 * 10 **-42.0

       No.  Residual tot.,    conf., and orb.    Bnorm      Frequency 
      ----------------------------------------------------------------
         1    1.33492D+00  5.93D-01  1.20D+00  7.80D+02    1.16800D-01

 ** RSPCTL MICROITERATION NUMBER   22

 *** INFO, negative eigenvalues in reduced matrix. Symmetry  1,  triplet       F Dimension of reduced matrix =    46

 GP * SOLUTION vector at frequency     0.11680 a.u.
 after   23 linear transformations is      1.29180738D+04
 INERTIA (POS,ZER,NEG) of reduced matrix is   44    0    2
 Determinant of reduced matrix is  2.57 * 10 **-44.0

       No.  Residual tot.,    conf., and orb.    Bnorm      Frequency 
      ----------------------------------------------------------------
         1    9.38057D-01  8.28D-01  4.41D-01  7.83D+02    1.16800D-01

 ** RSPCTL MICROITERATION NUMBER   23

 *** INFO, negative eigenvalues in reduced matrix. Symmetry  1,  triplet       F Dimension of reduced matrix =    48

 GP * SOLUTION vector at frequency     0.11680 a.u.
 after   24 linear transformations is      1.29186416D+04
 INERTIA (POS,ZER,NEG) of reduced matrix is   46    0    2
 Determinant of reduced matrix is  2.98 * 10 **-44.0

       No.  Residual tot.,    conf., and orb.    Bnorm      Frequency 
      ----------------------------------------------------------------
         1    7.39979D-01  7.34D-02  7.36D-01  7.84D+02    1.16800D-01

 *** THE REQUESTED    1 SOLUTION VECTORS CONVERGED

 Convergence of RSP solution vectors, threshold = 1.00D-03
 ---------------------------------------------------------------
 (dimension of paired reduced space:   48)
 RSP solution vector no.    1; norm of residual   9.44D-04

 *** RSPCTL MICROITERATIONS CONVERGED
    YDIPLEN     YDIPLEN      freq1     freq2                Norm
 ---------------------------------------------------------------
                          0.058400  0.058400        784.15773770
  Time used in CRVEC2     is       2 hours 57 minutes 20 seconds


 ----- CALCULATING CONTRIBUTIONS TO SECOND HYPERPOLARIZABILITY -----


   Contribution                Term         Accumulated
 ------------------------------------------------------
 Na T[4] Nb Nc Nd198640737.75854892  198640737.75854892
 Na T[3] Nx Nyz -290808908.99961507  -92168171.24106616
 Na X[3] Ny Nz     2542688.86888307  -89625482.37218308
 Nx A[3] Ny Nz      847562.95629440  -88777919.41588868
 Na X[2] Nyz     -16033626.07640355 -104811545.49229223
 Nx A[2] Nyz     -16745778.63020509 -121557324.12249732

@ Cubic response function value in a.u. for
@ A operator, symmetry, frequency:   ZDIPLEN    1 -0.058400
@ B operator, symmetry, frequency:   ZDIPLEN    1  0.058400
@ C operator, symmetry, frequency:   ZDIPLEN    1 -0.058400
@ D operator, symmetry, frequency:   ZDIPLEN    1  0.058400

@ << A; B, C, D >>  =  -121557324.12249732



   Contribution                Term         Accumulated
 ------------------------------------------------------
 Na T[4] Nb Nc Nd   796309.69760214     796309.69760214
 Na T[3] Nx Nyz    -674164.48458955     122145.21301259
 Na X[3] Ny Nz      779443.60545822     901588.81847081
 Nx A[3] Ny Nz      798886.26805358    1700475.08652439
 Na X[2] Nyz        675873.54761924    2376348.63414363
 Nx A[2] Nyz      -1186126.80241842    1190221.83172521

@ Cubic response function value in a.u. for
@ A operator, symmetry, frequency:   XDIPLEN    2 -0.058400
@ B operator, symmetry, frequency:   XDIPLEN    2  0.058400
@ C operator, symmetry, frequency:   ZDIPLEN    1 -0.058400
@ D operator, symmetry, frequency:   ZDIPLEN    1  0.058400

@ << A; B, C, D >>  =     1190221.83172521



   Contribution                Term         Accumulated
 ------------------------------------------------------
 Na T[4] Nb Nc Nd   -58937.89239932     -58937.89239932
 Na T[3] Nx Nyz       -418.42578284     -59356.31818215
 Na X[3] Ny Nz      139376.44726532      80020.12908317
 Nx A[3] Ny Nz       82657.76298453     162677.89206770
 Na X[2] Nyz         18793.20874935     181471.10081705
 Nx A[2] Nyz       -295532.26025117    -114061.15943412

@ Cubic response function value in a.u. for
@ A operator, symmetry, frequency:   YDIPLEN    3 -0.058400
@ B operator, symmetry, frequency:   YDIPLEN    3  0.058400
@ C operator, symmetry, frequency:   ZDIPLEN    1 -0.058400
@ D operator, symmetry, frequency:   ZDIPLEN    1  0.058400

@ << A; B, C, D >>  =     -114061.15943412



   Contribution                Term         Accumulated
 ------------------------------------------------------
 Na T[4] Nb Nc Nd   302473.54130136     302473.54130136
 Na T[3] Nx Nyz   -1531205.15522323   -1228731.61392187
 Na X[3] Ny Nz      149724.03974370   -1079007.57417817
 Nx A[3] Ny Nz       -7028.74315948   -1086036.31733765
 Na X[2] Nyz       -442211.31826166   -1528247.63559931
 Nx A[2] Nyz       -166216.70623290   -1694464.34183220

@ Cubic response function value in a.u. for
@ A operator, symmetry, frequency:   XDIPLEN    2 -0.058400
@ B operator, symmetry, frequency:   ZDIPLEN    1  0.058400
@ C operator, symmetry, frequency:   XDIPLEN    2 -0.058400
@ D operator, symmetry, frequency:   ZDIPLEN    1  0.058400

@ << A; B, C, D >>  =    -1694464.34183220



   Contribution                Term         Accumulated
 ------------------------------------------------------
 Na T[4] Nb Nc Nd   -29959.95804639     -29959.95804639
 Na T[3] Nx Nyz     -49497.21046294     -79457.16850933
 Na X[3] Ny Nz       62751.17180489     -16705.99670445
 Nx A[3] Ny Nz       10390.72099706      -6315.27570739
 Na X[2] Nyz       -234999.91541953    -241315.19112692
 Nx A[2] Nyz       -347919.99193536    -589235.18306228

@ Cubic response function value in a.u. for
@ A operator, symmetry, frequency:   YDIPLEN    3 -0.058400
@ B operator, symmetry, frequency:   ZDIPLEN    1  0.058400
@ C operator, symmetry, frequency:   YDIPLEN    3 -0.058400
@ D operator, symmetry, frequency:   ZDIPLEN    1  0.058400

@ << A; B, C, D >>  =     -589235.18306228



   Contribution                Term         Accumulated
 ------------------------------------------------------
 Na T[4] Nb Nc Nd   402419.97755031     402419.97755031
 Na T[3] Nx Nyz   -2211678.93234268   -1809258.95479237
 Na X[3] Ny Nz     -171563.35242670   -1980822.30721907
 Nx A[3] Ny Nz        -251.02773485   -1981073.33495392
 Na X[2] Nyz        380911.70215967   -1600161.63279425
 Nx A[2] Nyz        -97243.31906515   -1697404.95185940

@ Cubic response function value in a.u. for
@ A operator, symmetry, frequency:   ZDIPLEN    1 -0.058400
@ B operator, symmetry, frequency:   XDIPLEN    2  0.058400
@ C operator, symmetry, frequency:   ZDIPLEN    1 -0.058400
@ D operator, symmetry, frequency:   XDIPLEN    2  0.058400

@ << A; B, C, D >>  =    -1697404.95185940



   Contribution                Term         Accumulated
 ------------------------------------------------------
 Na T[4] Nb Nc Nd   619447.98869380     619447.98869380
 Na T[3] Nx Nyz    -809777.25359222    -190329.26489842
 Na X[3] Ny Nz      255395.63652519      65066.37162677
 Nx A[3] Ny Nz       85131.87884173     150198.25046849
 Na X[2] Nyz         -7903.19837308     142295.05209541
 Nx A[2] Nyz       -118051.00197830      24244.05011711

@ Cubic response function value in a.u. for
@ A operator, symmetry, frequency:   XDIPLEN    2 -0.058400
@ B operator, symmetry, frequency:   XDIPLEN    2  0.058400
@ C operator, symmetry, frequency:   XDIPLEN    2 -0.058400
@ D operator, symmetry, frequency:   XDIPLEN    2  0.058400

@ << A; B, C, D >>  =       24244.05011711



   Contribution                Term         Accumulated
 ------------------------------------------------------
 Na T[4] Nb Nc Nd    -9098.55829158      -9098.55829158
 Na T[3] Nx Nyz      -3123.86478126     -12222.42307285
 Na X[3] Ny Nz       18005.29056296       5782.86749011
 Nx A[3] Ny Nz        6452.30313457      12235.17062468
 Na X[2] Nyz         -5177.36075723       7057.80986745
 Nx A[2] Nyz        -18683.66388553     -11625.85401808

@ Cubic response function value in a.u. for
@ A operator, symmetry, frequency:   YDIPLEN    3 -0.058400
@ B operator, symmetry, frequency:   YDIPLEN    3  0.058400
@ C operator, symmetry, frequency:   XDIPLEN    2 -0.058400
@ D operator, symmetry, frequency:   XDIPLEN    2  0.058400

@ << A; B, C, D >>  =      -11625.85401808



   Contribution                Term         Accumulated
 ------------------------------------------------------
 Na T[4] Nb Nc Nd    -8567.47476159      -8567.47476159
 Na T[3] Nx Nyz      -3525.09029443     -12092.56505602
 Na X[3] Ny Nz       17039.96606806       4947.40101204
 Nx A[3] Ny Nz        5861.77904893      10809.18006098
 Na X[2] Nyz        -12291.28162324      -1482.10156227
 Nx A[2] Nyz        -22642.39751222     -24124.49907449

@ Cubic response function value in a.u. for
@ A operator, symmetry, frequency:   YDIPLEN    3 -0.058400
@ B operator, symmetry, frequency:   XDIPLEN    2  0.058400
@ C operator, symmetry, frequency:   YDIPLEN    3 -0.058400
@ D operator, symmetry, frequency:   XDIPLEN    2  0.058400

@ << A; B, C, D >>  =      -24124.49907449



   Contribution                Term         Accumulated
 ------------------------------------------------------
 Na T[4] Nb Nc Nd     6621.43054801       6621.43054801
 Na T[3] Nx Nyz    -446942.14114692    -440320.71059891
 Na X[3] Ny Nz      -24621.75212797    -464942.46272688
 Nx A[3] Ny Nz        2319.08556192    -462623.37716496
 Na X[2] Nyz        -97697.34057140    -560320.71773636
 Nx A[2] Nyz        -26086.20979874    -586406.92753510

@ Cubic response function value in a.u. for
@ A operator, symmetry, frequency:   ZDIPLEN    1 -0.058400
@ B operator, symmetry, frequency:   YDIPLEN    3  0.058400
@ C operator, symmetry, frequency:   ZDIPLEN    1 -0.058400
@ D operator, symmetry, frequency:   YDIPLEN    3  0.058400

@ << A; B, C, D >>  =     -586406.92753510



   Contribution                Term         Accumulated
 ------------------------------------------------------
 Na T[4] Nb Nc Nd    -1206.80841844      -1206.80841844
 Na T[3] Nx Nyz      -1140.84409171      -2347.65251015
 Na X[3] Ny Nz        1713.35217549       -634.30033466
 Nx A[3] Ny Nz         389.32703225       -244.97330241
 Na X[2] Nyz        -12753.59559714     -12998.56889954
 Nx A[2] Nyz        -11128.07753082     -24126.64643037

@ Cubic response function value in a.u. for
@ A operator, symmetry, frequency:   XDIPLEN    2 -0.058400
@ B operator, symmetry, frequency:   YDIPLEN    3  0.058400
@ C operator, symmetry, frequency:   XDIPLEN    2 -0.058400
@ D operator, symmetry, frequency:   YDIPLEN    3  0.058400

@ << A; B, C, D >>  =      -24126.64643037



   Contribution                Term         Accumulated
 ------------------------------------------------------
 Na T[4] Nb Nc Nd     -726.90699635       -726.90699635
 Na T[3] Nx Nyz       3355.85314637       2628.94615002
 Na X[3] Ny Nz        2223.77115530       4852.71730533
 Nx A[3] Ny Nz         741.25705177       5593.97435709
 Na X[2] Nyz        -14684.98747291      -9091.01311582
 Nx A[2] Nyz        -14757.54129921     -23848.55441503

@ Cubic response function value in a.u. for
@ A operator, symmetry, frequency:   YDIPLEN    3 -0.058400
@ B operator, symmetry, frequency:   YDIPLEN    3  0.058400
@ C operator, symmetry, frequency:   YDIPLEN    3 -0.058400
@ D operator, symmetry, frequency:   YDIPLEN    3  0.058400

@ << A; B, C, D >>  =      -23848.55441503



  Summary of gamma values for a set of frequencies
 -------------------------------------------------

@ B-freq:  0.058400
@ C-freq: -0.058400
@ D-freq:  0.058400

@ gamma(X;X,X,X)     -24244.0501
@ gamma(X;X,Y,Y)      11625.8540
@ gamma(X;Y,Y,X)      11625.8540
@ gamma(X;Y,X,Y)      24126.6464
@ gamma(X;X,Z,Z)   -1190221.8317
@ gamma(X;Z,Z,X)   -1190221.8317
@ gamma(X;Z,X,Z)    1694464.3418
@ gamma(Y;Y,X,X)      11625.8540
@ gamma(Y;X,X,Y)      11625.8540
@ gamma(Y;X,Y,X)      24124.4991
@ gamma(Y;Y,Y,Y)      23848.5544
@ gamma(Y;Y,Z,Z)     114061.1594
@ gamma(Y;Z,Z,Y)     114061.1594
@ gamma(Y;Z,Y,Z)     589235.1831
@ gamma(Z;Z,X,X)   -1190221.8317
@ gamma(Z;X,X,Z)   -1190221.8317
@ gamma(Z;X,Z,X)    1697404.9519
@ gamma(Z;Z,Y,Y)     114061.1594
@ gamma(Z;Y,Y,Z)     114061.1594
@ gamma(Z;Y,Z,Y)     586406.9275
@ gamma(Z;Z,Z,Z)  121557324.1225

@ Averaged gamma parallel to the applied field is  24335227.277139

  Total CPU  time used in RESPONSE:   7 hours 57 minutes 24 seconds
  Total wall time used in RESPONSE:   7 hours 57 minutes 44 seconds


                   .-------------------------------------------.
                   | End of Dynamic Property Section (RESPONS) |
                   `-------------------------------------------'

  Total CPU  time used in DALTON:  10 hours 55 minutes 29 seconds
  Total wall time used in DALTON:  10 hours 56 minutes  5 seconds

 
     Date and time (Linux)  : Thu Feb  6 23:26:04 2020
     Host name              : Lab2-333-NPs                            
