

     ************************************************************************
     *************** Dalton - An Electronic Structure Program ***************
     ************************************************************************

    This is output from DALTON release Dalton2018.1 (2019)
         ( Web site: http://daltonprogram.org )

   ----------------------------------------------------------------------------

    NOTE:
     
    Dalton is an experimental code for the evaluation of molecular
    properties using (MC)SCF, DFT, CI, and CC wave functions.
    The authors accept no responsibility for the performance of
    the code or for the correctness of the results.
     
    The code (in whole or part) is provided under a licence and
    is not to be reproduced for further distribution without
    the written permission of the authors or their representatives.
     
    See the home page "http://daltonprogram.org" for further information.
     
    If results obtained with this code are published,
    the appropriate citations would be both of:
     
       K. Aidas, C. Angeli, K. L. Bak, V. Bakken, R. Bast,
       L. Boman, O. Christiansen, R. Cimiraglia, S. Coriani,
       P. Dahle, E. K. Dalskov, U. Ekstroem,
       T. Enevoldsen, J. J. Eriksen, P. Ettenhuber, B. Fernandez,
       L. Ferrighi, H. Fliegl, L. Frediani, K. Hald, A. Halkier,
       C. Haettig, H. Heiberg, T. Helgaker, A. C. Hennum,
       H. Hettema, E. Hjertenaes, S. Hoest, I.-M. Hoeyvik,
       M. F. Iozzi, B. Jansik, H. J. Aa. Jensen, D. Jonsson,
       P. Joergensen, J. Kauczor, S. Kirpekar,
       T. Kjaergaard, W. Klopper, S. Knecht, R. Kobayashi, H. Koch,
       J. Kongsted, A. Krapp, K. Kristensen, A. Ligabue,
       O. B. Lutnaes, J. I. Melo, K. V. Mikkelsen, R. H. Myhre,
       C. Neiss, C. B. Nielsen, P. Norman, J. Olsen,
       J. M. H. Olsen, A. Osted, M. J. Packer, F. Pawlowski,
       T. B. Pedersen, P. F. Provasi, S. Reine, Z. Rinkevicius,
       T. A. Ruden, K. Ruud, V. Rybkin, P. Salek, C. C. M. Samson,
       A. Sanchez de Meras, T. Saue, S. P. A. Sauer,
       B. Schimmelpfennig, K. Sneskov, A. H. Steindal,
       K. O. Sylvester-Hvid, P. R. Taylor, A. M. Teale,
       E. I. Tellgren, D. P. Tew, A. J. Thorvaldsen, L. Thoegersen,
       O. Vahtras, M. A. Watson, D. J. D. Wilson, M. Ziolkowski
       and H. Agren,
       "The Dalton quantum chemistry program system",
       WIREs Comput. Mol. Sci. 2014, 4:269–284 (doi: 10.1002/wcms.1172)
     
    and
     
       Dalton, a molecular electronic structure program,
       Release Dalton2018.1 (2019), see http://daltonprogram.org
   ----------------------------------------------------------------------------

    Authors in alphabetical order (major contribution(s) in parenthesis):

  Kestutis Aidas,           Vilnius University,           Lithuania   (QM/MM)
  Celestino Angeli,         University of Ferrara,        Italy       (NEVPT2)
  Keld L. Bak,              UNI-C,                        Denmark     (AOSOPPA, non-adiabatic coupling, magnetic properties)
  Vebjoern Bakken,          University of Oslo,           Norway      (DALTON; geometry optimizer, symmetry detection)
  Radovan Bast,             UiT The Arctic U. of Norway,  Norway      (DALTON installation and execution frameworks)
  Pablo Baudin,             University of Valencia,       Spain       (Cholesky excitation energies)
  Linus Boman,              NTNU,                         Norway      (Cholesky decomposition and subsystems)
  Ove Christiansen,         Aarhus University,            Denmark     (CC module)
  Renzo Cimiraglia,         University of Ferrara,        Italy       (NEVPT2)
  Sonia Coriani,            Technical Univ. of Denmark,   Denmark     (CC module, MCD in RESPONS)
  Janusz Cukras,            University of Trieste,        Italy       (MChD in RESPONS)
  Paal Dahle,               University of Oslo,           Norway      (Parallelization)
  Erik K. Dalskov,          UNI-C,                        Denmark     (SOPPA)
  Thomas Enevoldsen,        Univ. of Southern Denmark,    Denmark     (SOPPA)
  Janus J. Eriksen,         Aarhus University,            Denmark     (Polarizable embedding model, TDA)
  Rasmus Faber,             University of Copenhagen,     Denmark     (Vib.avg. NMR with SOPPA, parallel AO-SOPPA)
  Tobias Fahleson,          KTH Stockholm,                Sweden      (Damped cubic response)
  Berta Fernandez,          U. of Santiago de Compostela, Spain       (doublet spin, ESR in RESPONS)
  Lara Ferrighi,            Aarhus University,            Denmark     (PCM Cubic response)
  Heike Fliegl,             University of Oslo,           Norway      (CCSD(R12))
  Luca Frediani,            UiT The Arctic U. of Norway,  Norway      (PCM)
  Bin Gao,                  UiT The Arctic U. of Norway,  Norway      (Gen1Int library)
  Christof Haettig,         Ruhr-University Bochum,       Germany     (CC module)
  Kasper Hald,              Aarhus University,            Denmark     (CC module)
  Asger Halkier,            Aarhus University,            Denmark     (CC module)
  Frederik Beyer Hansen,    University of Copenhagen,     Denmark     (Parallel AO-SOPPA)
  Erik D. Hedegaard,        Univ. of Southern Denmark,    Denmark     (Polarizable embedding model, QM/MM)
  Hanne Heiberg,            University of Oslo,           Norway      (geometry analysis, selected one-electron integrals)
  Trygve Helgaker,          University of Oslo,           Norway      (DALTON; ABACUS, ERI, DFT modules, London, and much more)
  Alf Christian Hennum,     University of Oslo,           Norway      (Parity violation)
  Hinne Hettema,            University of Auckland,       New Zealand (quadratic response in RESPONS; SIRIUS supersymmetry)
  Eirik Hjertenaes,         NTNU,                         Norway      (Cholesky decomposition)
  Pi A. B. Haase,           University of Copenhagen,     Denmark     (Triplet AO-SOPPA)
  Maria Francesca Iozzi,    University of Oslo,           Norway      (RPA)
  Christoph Jacob           TU Braunschweig               Germany     (Frozen density embedding model)
  Brano Jansik              Technical Univ. of Ostrava    Czech Rep.  (DFT cubic response)
  Hans Joergen Aa. Jensen,  Univ. of Southern Denmark,    Denmark     (DALTON; SIRIUS, RESPONS, ABACUS modules, London, and much more)
  Dan Jonsson,              UiT The Arctic U. of Norway,  Norway      (cubic response in RESPONS module)
  Poul Joergensen,          Aarhus University,            Denmark     (RESPONS, ABACUS, and CC modules)
  Maciej Kaminski,          University of Warsaw,         Poland      (CPPh in RESPONS)
  Joanna Kauczor,           Linkoeping University,        Sweden      (Complex polarization propagator (CPP) module)
  Sheela Kirpekar,          Univ. of Southern Denmark,    Denmark     (Mass-velocity & Darwin integrals)
  Wim Klopper,              KIT Karlsruhe,                Germany     (R12 code in CC, SIRIUS, and ABACUS modules)
  Stefan Knecht,            ETH Zurich,                   Switzerland (Parallel CI and MCSCF)
  Rika Kobayashi,           Australian National Univ.,    Australia   (DIIS in CC, London in MCSCF)
  Henrik Koch,              NTNU,                         Norway      (CC module, Cholesky decomposition)
  Jacob Kongsted,           Univ. of Southern Denmark,    Denmark     (Polarizable embedding model, QM/MM)
  Andrea Ligabue,           University of Modena,         Italy       (CTOCD, AOSOPPA)
  Nanna H. List             Univ. of Southern Denmark,    Denmark     (Polarizable embedding model)
  Ola B. Lutnaes,           University of Oslo,           Norway      (DFT Hessian)
  Juan I. Melo,             University of Buenos Aires,   Argentina   (LRESC, Relativistic Effects on NMR Shieldings)
  Kurt V. Mikkelsen,        University of Copenhagen,     Denmark     (MC-SCRF and QM/MM)
  Rolf H. Myhre,            NTNU,                         Norway      (Subsystems and CC3)
  Christian Neiss,          Univ. Erlangen-Nuernberg,     Germany     (CCSD(R12))
  Christian B. Nielsen,     University of Copenhagen,     Denmark     (QM/MM)
  Patrick Norman,           KTH Stockholm,                Sweden      (Cubic response and complex frequency response in RESPONS)
  Jeppe Olsen,              Aarhus University,            Denmark     (SIRIUS CI/density modules)
  Jogvan Magnus H. Olsen,   Univ. of Southern Denmark,    Denmark     (Polarizable embedding model, QM/MM)
  Anders Osted,             Copenhagen University,        Denmark     (QM/MM)
  Martin J. Packer,         University of Sheffield,      UK          (SOPPA)
  Filip Pawlowski,          Kazimierz Wielki University,  Poland      (CC3)
  Morten N. Pedersen,       Univ. of Southern Denmark,    Denmark     (Polarizable embedding model)
  Thomas B. Pedersen,       University of Oslo,           Norway      (Cholesky decomposition)
  Patricio F. Provasi,      University of Northeastern,   Argentina   (Analysis of coupling constants in localized orbitals)
  Zilvinas Rinkevicius,     KTH Stockholm,                Sweden      (open-shell DFT, ESR)
  Elias Rudberg,            KTH Stockholm,                Sweden      (DFT grid and basis info)
  Torgeir A. Ruden,         University of Oslo,           Norway      (Numerical derivatives in ABACUS)
  Kenneth Ruud,             UiT The Arctic U. of Norway,  Norway      (DALTON; ABACUS magnetic properties and much more)
  Pawel Salek,              KTH Stockholm,                Sweden      (DALTON; DFT code)
  Claire C. M. Samson       University of Karlsruhe       Germany     (Boys localization, r12 integrals in ERI)
  Alfredo Sanchez de Meras, University of Valencia,       Spain       (CC module, Cholesky decomposition)
  Trond Saue,               Paul Sabatier University,     France      (direct Fock matrix construction)
  Stephan P. A. Sauer,      University of Copenhagen,     Denmark     (SOPPA(CCSD), SOPPA prop., AOSOPPA, vibrational g-factors)
  Andre S. P. Gomes,        CNRS/Universite de Lille,     France      (Frozen density embedding model)
  Bernd Schimmelpfennig,    Forschungszentrum Karlsruhe,  Germany     (AMFI module)
  Kristian Sneskov,         Aarhus University,            Denmark     (Polarizable embedding model, QM/MM)
  Arnfinn H. Steindal,      UiT The Arctic U. of Norway,  Norway      (parallel QM/MM, Polarizable embedding model)
  Casper Steinmann,         Univ. of Southern Denmark,    Denmark     (QFIT, Polarizable embedding model)
  K. O. Sylvester-Hvid,     University of Copenhagen,     Denmark     (MC-SCRF)
  Peter R. Taylor,          VLSCI/Univ. of Melbourne,     Australia   (Symmetry handling ABACUS, integral transformation)
  Andrew M. Teale,          University of Nottingham,     England     (DFT-AC, DFT-D)
  David P. Tew,             University of Bristol,        England     (CCSD(R12))
  Olav Vahtras,             KTH Stockholm,                Sweden      (triplet response, spin-orbit, ESR, TDDFT, open-shell DFT)
  Lucas Visscher,           Vrije Universiteit Amsterdam, Netherlands (Frozen density embedding model)
  David J. Wilson,          La Trobe University,          Australia   (DFT Hessian and DFT magnetizabilities)
  Hans Agren,               KTH Stockholm,                Sweden      (SIRIUS module, RESPONS, MC-SCRF solvation model)
 --------------------------------------------------------------------------------

     Date and time (Linux)  : Fri Feb  7 10:01:16 2020
     Host name              : Lab2-333-NPs                            

 * Work memory size             :  1024000000 =  7.629 gigabytes.

 * Directories for basis set searches:
   1) /home/lab333/dalton/build_2018_atlas
   2) /home/lab333/dalton/build_2018_atlas/basis


Compilation information
-----------------------

 Who compiled             | lab333
 Host                     | Lab2-333-NPs
 System                   | Linux-4.4.0-43-Microsoft
 CMake generator          | Unix Makefiles
 Processor                | x86_64
 64-bit integers          | OFF
 MPI                      | OFF
 Fortran compiler         | /usr/bin/gfortran
 Fortran compiler version | GNU Fortran (Ubuntu 7.3.0-27ubuntu1~18.04) 7.3.0
 C compiler               | /usr/bin/gcc
 C compiler version       | gcc (Ubuntu 7.3.0-27ubuntu1~18.04) 7.3.0
 C++ compiler             | /usr/bin/g++
 C++ compiler version     | g++ (Ubuntu 7.3.0-27ubuntu1~18.04) 7.3.0
 BLAS                     | /usr/lib/x86_64-linux-gnu/libf77blas.so;/usr/lib/x
                          | 86_64-linux-gnu/libcblas.so;/usr/lib/x86_64-linux-
                          | gnu/libatlas.so
 LAPACK                   | /usr/lib/x86_64-linux-gnu/libatlas.so;/usr/lib/x86
                          | _64-linux-gnu/atlas/liblapack.so
 Static linking           | OFF
 Last Git revision        | da625bf48c74028e805616daee31bc5d76b3a20d
 Git branch               | (HEAD detached at Dalton2018.1)
 Configuration time       | 2019-01-18 10:20:51.437510


   Content of the .dal input file
 ----------------------------------

**DALTON INPUT
.RUN RESPONSE
.DIRECT
**WAVE FUNCTIONS
.HF
.MP2
.MCSCF
*CONFIGURATION INPUT
.SPIN MULTIPLICITY
3
.SYMMETRY
1
.INACTIVE ORBITALS
15 10 2 0
.CAS SPACE
1 1 2 3
.ELECTRONS
10
*ORBITAL INPUT
.MOSTART
.HUCKEL
*OPTIMIZATION
.DETERMINANTS
.STATE
2
*CI VECTOR
.PLUS COMBINATIONS
**RESPONSE
*CUBIC
.DIPLEN
.BFREQ
1
0.0584
.CFREQ
1
-0.0584
.DFREQ
1
0.0584
**END OF DALTON INPUT


   Content of the .mol file
 ----------------------------

BASIS
aug-cc-pCVDZ
 nitrobenzene
 Generated by the Dalton Input File Plugin for Avogadro
Atomtypes=4 Angstrom Generators=2 X Y
Charge=6.0 Atoms=4
C        0.0000000000            0.0000000000           -0.0265759623
C       -1.2190534920            0.0000000000           -0.6979856948
C       -1.2105095870            0.0000000000           -2.0897394457
C        0.0000000000            0.0000000000           -2.7841484631
Charge=7.0 Atoms=1
N        0.0000000000            0.0000000000            1.4549291696
Charge=8.0 Atoms=1
O       1.0682054359921047            0.0            2.054080227683672
Charge=1.0 Atoms=3
H       -2.1410602955            0.0000000000           -0.1327964319
H       -2.1492827751            0.0000000000           -2.6311811056
H        0.0000000000            0.0000000000           -3.8683953478


       *******************************************************************
       *********** Output from DALTON general input processing ***********
       *******************************************************************

 --------------------------------------------------------------------------------
   Overall default print level:    0
   Print level for DALTON.STAT:    1

    AO-direct calculation (in sections where implemented)
    HERMIT 1- and 2-electron integral sections will be executed
    "Old" integral transformation used (limited to max 255 basis functions)
    Wave function sections will be executed (SIRIUS module)
    Dynamic molecular response properties section will be executed (RESPONSE module)
 --------------------------------------------------------------------------------


   ****************************************************************************
   *************** Output of molecule and basis set information ***************
   ****************************************************************************


    The two title cards from your ".mol" input:
    ------------------------------------------------------------------------
 1:  nitrobenzene                                                           
 2:  Generated by the Dalton Input File Plugin for Avogadro                 
    ------------------------------------------------------------------------

  Coordinates are entered in Angstrom and converted to atomic units.
          - Conversion factor : 1 bohr = 0.52917721 A

  Atomic type no.    1
  --------------------
  Nuclear charge:   6.00000
  Number of symmetry independent centers:    4
  Number of basis sets to read;    2
  Basis set file used for this atomic type with Z =   6 :
     "/home/lab333/dalton/build_2018_atlas/basis/aug-cc-pCVDZ"

  Atomic type no.    2
  --------------------
  Nuclear charge:   7.00000
  Number of symmetry independent centers:    1
  Number of basis sets to read;    2
  Basis set file used for this atomic type with Z =   7 :
     "/home/lab333/dalton/build_2018_atlas/basis/aug-cc-pCVDZ"

  Atomic type no.    3
  --------------------
  Nuclear charge:   8.00000
  Number of symmetry independent centers:    1
  Number of basis sets to read;    2
  Basis set file used for this atomic type with Z =   8 :
     "/home/lab333/dalton/build_2018_atlas/basis/aug-cc-pCVDZ"

  Atomic type no.    4
  --------------------
  Nuclear charge:   1.00000
  Number of symmetry independent centers:    3
  Number of basis sets to read;    2
  Basis set file used for this atomic type with Z =   1 :
     "/home/lab333/dalton/build_2018_atlas/basis/aug-cc-pCVDZ"


                         SYMGRP: Point group information
                         -------------------------------

@    Point group: C2v

@  * The irrep name for each symmetry:    1: A1     2: B1     3: B2     4: A2 

   * The point group was generated by:

      Reflection in the yz-plane
      Reflection in the xz-plane

   * Group multiplication table

        |  E   C2z  Oxz  Oyz
   -----+--------------------
     E  |  E   C2z  Oxz  Oyz
    C2z | C2z   E   Oyz  Oxz
    Oxz | Oxz  Oyz   E   C2z
    Oyz | Oyz  Oxz  C2z   E 

   * Character table

        |  E   C2z  Oxz  Oyz
   -----+--------------------
    A1  |   1    1    1    1
    B1  |   1   -1    1   -1
    B2  |   1   -1   -1    1
    A2  |   1    1   -1   -1

   * Direct product table

        | A1   B1   B2   A2 
   -----+--------------------
    A1  | A1   B1   B2   A2 
    B1  | B1   A1   A2   B2 
    B2  | B2   A2   A1   B1 
    A2  | A2   B2   B1   A1 


                                 Isotopic Masses
                                 ---------------

                           C          12.000000
                           C   _1     12.000000
                           C   _2     12.000000
                           C   _1     12.000000
                           C   _2     12.000000
                           C          12.000000
                           N          14.003074
                           O   _1     15.994915
                           O   _2     15.994915
                           H   _1      1.007825
                           H   _2      1.007825
                           H   _1      1.007825
                           H   _2      1.007825
                           H           1.007825

                       Total mass:   123.032029 amu
                       Natural abundance:  92.716 %

 Center-of-mass coordinates (a.u.):    0.000000    0.000000   -0.368951


  Atoms and basis sets
  --------------------

  Number of atom types :    4
  Total number of atoms:   14

  Basis set used is "aug-cc-pCVDZ" from the basis set library.

  label    atoms   charge   prim   cont     basis
  ----------------------------------------------------------------------
  C           6    6.0000    39    27      [11s6p2d|5s4p2d]                                   
  N           1    7.0000    39    27      [11s6p2d|5s4p2d]                                   
  O           2    8.0000    39    27      [11s6p2d|5s4p2d]                                   
  H           5    1.0000    11     9      [5s2p|3s2p]                                        
  ----------------------------------------------------------------------
  total:     14   64.0000   406   288
  ----------------------------------------------------------------------
  Spherical harmonic basis used.

  Threshold for neglecting AO integrals:  1.00D-12


  Symmetry Coordinates
  --------------------

  Number of coordinates in each symmetry:    14   14    9    5


   Interatomic separations (in Angstrom):
   --------------------------------------

            C           C   _1      C   _2      C   _1      C   _2      C     
            ------      ------      ------      ------      ------      ------
 C     :    0.000000
 C   _1:    1.391719    0.000000
 C   _2:    1.391719    2.438107    0.000000
 C   _1:    2.392065    1.391780    2.799956    0.000000
 C   _2:    2.392065    2.799956    1.391780    2.421019    0.000000
 C     :    2.757573    2.416230    2.416230    1.395542    1.395542    0.000000
 N     :    1.481505    2.474093    2.474093    3.745665    3.745665    4.239078
 O   _1:    2.338844    3.578466    2.756197    4.729036    4.146262    4.954747
 O   _2:    2.338844    2.756197    3.578466    4.146262    4.729036    4.954747
 H   _1:    2.143694    1.081451    3.407316    2.166922    3.881063    3.407904
 H   _2:    2.143694    3.407316    1.081451    3.881063    2.166922    3.407904
 H   _1:    3.376890    2.145360    3.883675    1.083722    3.403140    2.154719
 H   _2:    3.376890    3.883675    2.145360    3.403140    1.083722    2.154719
 H     :    3.841819    3.396703    3.396703    2.151500    2.151500    1.084247

            N           O   _1      O   _2      H   _1      H   _2      H   _1
            ------      ------      ------      ------      ------      ------
 N     :    0.000000
 O   _1:    1.224763    0.000000
 O   _2:    1.224763    2.136411    0.000000
 H   _1:    2.665523    3.883531    2.435867    0.000000
 H   _2:    2.665523    2.435867    3.883531    4.282121    0.000000
 H   _1:    4.616894    5.683652    4.808368    2.498398    4.964773    0.000000
 H   _2:    4.616894    4.808368    5.683652    4.964773    2.498398    4.298566
 H     :    5.323325    6.018038    6.018038    4.305675    4.305675    2.479943

            H   _2      H     
            ------      ------
 H   _2:    0.000000
 H     :    2.479943    0.000000


  Max    interatomic separation is    6.0180 Angstrom (   11.3724 Bohr)
  between atoms   14 and    8, "H     " and "O   _1".

  Min HX interatomic separation is    1.0815 Angstrom (    2.0436 Bohr)

  Min YX interatomic separation is    1.2248 Angstrom (    2.3145 Bohr)


  Bond distances (Angstrom):
  --------------------------

                  atom 1     atom 2       distance
                  ------     ------       --------
  bond distance:  C   _1     C            1.391719
  bond distance:  C   _2     C            1.391719
  bond distance:  C   _1     C   _1       1.391780
  bond distance:  C   _2     C   _2       1.391780
  bond distance:  C          C   _1       1.395542
  bond distance:  C          C   _2       1.395542
  bond distance:  N          C            1.481505
  bond distance:  O   _1     N            1.224763
  bond distance:  O   _2     N            1.224763
  bond distance:  H   _1     C   _1       1.081451
  bond distance:  H   _2     C   _2       1.081451
  bond distance:  H   _1     C   _1       1.083722
  bond distance:  H   _2     C   _2       1.083722
  bond distance:  H          C            1.084247


  Bond angles (degrees):
  ----------------------

                  atom 1     atom 2     atom 3         angle
                  ------     ------     ------         -----
  bond angle:     C   _1     C          C   _2       122.311
  bond angle:     C   _1     C          N            118.844
  bond angle:     C   _2     C          N            118.844
  bond angle:     C          C   _1     C   _1       118.493
  bond angle:     C          C   _1     H   _1       119.647
  bond angle:     C   _1     C   _1     H   _1       121.860
  bond angle:     C          C   _2     C   _2       118.493
  bond angle:     C          C   _2     H   _2       119.647
  bond angle:     C   _2     C   _2     H   _2       121.860
  bond angle:     C   _1     C   _1     C            120.192
  bond angle:     C   _1     C   _1     H   _1       119.623
  bond angle:     C          C   _1     H   _1       120.185
  bond angle:     C   _2     C   _2     C            120.192
  bond angle:     C   _2     C   _2     H   _2       119.623
  bond angle:     C          C   _2     H   _2       120.185
  bond angle:     C   _1     C          C   _2       120.319
  bond angle:     C   _1     C          H            119.841
  bond angle:     C   _2     C          H            119.841
  bond angle:     C          N          O   _1       119.288
  bond angle:     C          N          O   _2       119.288
  bond angle:     O   _1     N          O   _2       121.424




 Principal moments of inertia (u*A**2) and principal axes
 --------------------------------------------------------

   IA     125.887751          0.000000    0.000000    1.000000
   IB     398.523735          1.000000    0.000000    0.000000
   IC     524.411486          0.000000    1.000000    0.000000


 Rotational constants
 --------------------

@    The molecule is planar.

               A                   B                   C

           4014.5209           1268.1277            963.7070 MHz
            0.133910            0.042300            0.032146 cm-1


@  Nuclear repulsion energy :  411.668697987238 Hartree


  Symmetry Orbitals
  -----------------

  Number of orbitals in each symmetry:         115   91   48   34


  Symmetry  A1 ( 1)

    1     C        1s         1
    2     C        1s         2
    3     C        1s         3
    4     C        1s         4
    5     C        1s         5
    6     C        2pz        8
    7     C        2pz       11
    8     C        2pz       14
    9     C        2pz       17
   10     C        3d0       20
   11     C        3d2+      22
   12     C        3d0       25
   13     C        3d2+      27
   14     C        1s        28 +   29
   15     C        1s        30 +   31
   16     C        1s        32 +   33
   17     C        1s        34 +   35
   18     C        1s        36 +   37
   19     C        2px       38 -   39
   20     C        2pz       42 +   43
   21     C        2px       44 -   45
   22     C        2pz       48 +   49
   23     C        2px       50 -   51
   24     C        2pz       54 +   55
   25     C        2px       56 -   57
   26     C        2pz       60 +   61
   27     C        3d0       66 +   67
   28     C        3d1+      68 -   69
   29     C        3d2+      70 +   71
   30     C        3d0       76 +   77
   31     C        3d1+      78 -   79
   32     C        3d2+      80 +   81
   33     C        1s        82 +   83
   34     C        1s        84 +   85
   35     C        1s        86 +   87
   36     C        1s        88 +   89
   37     C        1s        90 +   91
   38     C        2px       92 -   93
   39     C        2pz       96 +   97
   40     C        2px       98 -   99
   41     C        2pz      102 +  103
   42     C        2px      104 -  105
   43     C        2pz      108 +  109
   44     C        2px      110 -  111
   45     C        2pz      114 +  115
   46     C        3d0      120 +  121
   47     C        3d1+     122 -  123
   48     C        3d2+     124 +  125
   49     C        3d0      130 +  131
   50     C        3d1+     132 -  133
   51     C        3d2+     134 +  135
   52     C        1s       136
   53     C        1s       137
   54     C        1s       138
   55     C        1s       139
   56     C        1s       140
   57     C        2pz      143
   58     C        2pz      146
   59     C        2pz      149
   60     C        2pz      152
   61     C        3d0      155
   62     C        3d2+     157
   63     C        3d0      160
   64     C        3d2+     162
   65     N        1s       163
   66     N        1s       164
   67     N        1s       165
   68     N        1s       166
   69     N        1s       167
   70     N        2pz      170
   71     N        2pz      173
   72     N        2pz      176
   73     N        2pz      179
   74     N        3d0      182
   75     N        3d2+     184
   76     N        3d0      187
   77     N        3d2+     189
   78     O        1s       190 +  191
   79     O        1s       192 +  193
   80     O        1s       194 +  195
   81     O        1s       196 +  197
   82     O        1s       198 +  199
   83     O        2px      200 -  201
   84     O        2pz      204 +  205
   85     O        2px      206 -  207
   86     O        2pz      210 +  211
   87     O        2px      212 -  213
   88     O        2pz      216 +  217
   89     O        2px      218 -  219
   90     O        2pz      222 +  223
   91     O        3d0      228 +  229
   92     O        3d1+     230 -  231
   93     O        3d2+     232 +  233
   94     O        3d0      238 +  239
   95     O        3d1+     240 -  241
   96     O        3d2+     242 +  243
   97     H        1s       244 +  245
   98     H        1s       246 +  247
   99     H        1s       248 +  249
  100     H        2px      250 -  251
  101     H        2pz      254 +  255
  102     H        2px      256 -  257
  103     H        2pz      260 +  261
  104     H        1s       262 +  263
  105     H        1s       264 +  265
  106     H        1s       266 +  267
  107     H        2px      268 -  269
  108     H        2pz      272 +  273
  109     H        2px      274 -  275
  110     H        2pz      278 +  279
  111     H        1s       280
  112     H        1s       281
  113     H        1s       282
  114     H        2pz      285
  115     H        2pz      288


  Symmetry  B1 ( 2)

  116     C        2px        6
  117     C        2px        9
  118     C        2px       12
  119     C        2px       15
  120     C        3d1+      21
  121     C        3d1+      26
  122     C        1s        28 -   29
  123     C        1s        30 -   31
  124     C        1s        32 -   33
  125     C        1s        34 -   35
  126     C        1s        36 -   37
  127     C        2px       38 +   39
  128     C        2pz       42 -   43
  129     C        2px       44 +   45
  130     C        2pz       48 -   49
  131     C        2px       50 +   51
  132     C        2pz       54 -   55
  133     C        2px       56 +   57
  134     C        2pz       60 -   61
  135     C        3d0       66 -   67
  136     C        3d1+      68 +   69
  137     C        3d2+      70 -   71
  138     C        3d0       76 -   77
  139     C        3d1+      78 +   79
  140     C        3d2+      80 -   81
  141     C        1s        82 -   83
  142     C        1s        84 -   85
  143     C        1s        86 -   87
  144     C        1s        88 -   89
  145     C        1s        90 -   91
  146     C        2px       92 +   93
  147     C        2pz       96 -   97
  148     C        2px       98 +   99
  149     C        2pz      102 -  103
  150     C        2px      104 +  105
  151     C        2pz      108 -  109
  152     C        2px      110 +  111
  153     C        2pz      114 -  115
  154     C        3d0      120 -  121
  155     C        3d1+     122 +  123
  156     C        3d2+     124 -  125
  157     C        3d0      130 -  131
  158     C        3d1+     132 +  133
  159     C        3d2+     134 -  135
  160     C        2px      141
  161     C        2px      144
  162     C        2px      147
  163     C        2px      150
  164     C        3d1+     156
  165     C        3d1+     161
  166     N        2px      168
  167     N        2px      171
  168     N        2px      174
  169     N        2px      177
  170     N        3d1+     183
  171     N        3d1+     188
  172     O        1s       190 -  191
  173     O        1s       192 -  193
  174     O        1s       194 -  195
  175     O        1s       196 -  197
  176     O        1s       198 -  199
  177     O        2px      200 +  201
  178     O        2pz      204 -  205
  179     O        2px      206 +  207
  180     O        2pz      210 -  211
  181     O        2px      212 +  213
  182     O        2pz      216 -  217
  183     O        2px      218 +  219
  184     O        2pz      222 -  223
  185     O        3d0      228 -  229
  186     O        3d1+     230 +  231
  187     O        3d2+     232 -  233
  188     O        3d0      238 -  239
  189     O        3d1+     240 +  241
  190     O        3d2+     242 -  243
  191     H        1s       244 -  245
  192     H        1s       246 -  247
  193     H        1s       248 -  249
  194     H        2px      250 +  251
  195     H        2pz      254 -  255
  196     H        2px      256 +  257
  197     H        2pz      260 -  261
  198     H        1s       262 -  263
  199     H        1s       264 -  265
  200     H        1s       266 -  267
  201     H        2px      268 +  269
  202     H        2pz      272 -  273
  203     H        2px      274 +  275
  204     H        2pz      278 -  279
  205     H        2px      283
  206     H        2px      286


  Symmetry  B2 ( 3)

  207     C        2py        7
  208     C        2py       10
  209     C        2py       13
  210     C        2py       16
  211     C        3d1-      19
  212     C        3d1-      24
  213     C        2py       40 +   41
  214     C        2py       46 +   47
  215     C        2py       52 +   53
  216     C        2py       58 +   59
  217     C        3d2-      62 -   63
  218     C        3d1-      64 +   65
  219     C        3d2-      72 -   73
  220     C        3d1-      74 +   75
  221     C        2py       94 +   95
  222     C        2py      100 +  101
  223     C        2py      106 +  107
  224     C        2py      112 +  113
  225     C        3d2-     116 -  117
  226     C        3d1-     118 +  119
  227     C        3d2-     126 -  127
  228     C        3d1-     128 +  129
  229     C        2py      142
  230     C        2py      145
  231     C        2py      148
  232     C        2py      151
  233     C        3d1-     154
  234     C        3d1-     159
  235     N        2py      169
  236     N        2py      172
  237     N        2py      175
  238     N        2py      178
  239     N        3d1-     181
  240     N        3d1-     186
  241     O        2py      202 +  203
  242     O        2py      208 +  209
  243     O        2py      214 +  215
  244     O        2py      220 +  221
  245     O        3d2-     224 -  225
  246     O        3d1-     226 +  227
  247     O        3d2-     234 -  235
  248     O        3d1-     236 +  237
  249     H        2py      252 +  253
  250     H        2py      258 +  259
  251     H        2py      270 +  271
  252     H        2py      276 +  277
  253     H        2py      284
  254     H        2py      287


  Symmetry  A2 ( 4)

  255     C        3d2-      18
  256     C        3d2-      23
  257     C        2py       40 -   41
  258     C        2py       46 -   47
  259     C        2py       52 -   53
  260     C        2py       58 -   59
  261     C        3d2-      62 +   63
  262     C        3d1-      64 -   65
  263     C        3d2-      72 +   73
  264     C        3d1-      74 -   75
  265     C        2py       94 -   95
  266     C        2py      100 -  101
  267     C        2py      106 -  107
  268     C        2py      112 -  113
  269     C        3d2-     116 +  117
  270     C        3d1-     118 -  119
  271     C        3d2-     126 +  127
  272     C        3d1-     128 -  129
  273     C        3d2-     153
  274     C        3d2-     158
  275     N        3d2-     180
  276     N        3d2-     185
  277     O        2py      202 -  203
  278     O        2py      208 -  209
  279     O        2py      214 -  215
  280     O        2py      220 -  221
  281     O        3d2-     224 +  225
  282     O        3d1-     226 -  227
  283     O        3d2-     234 +  235
  284     O        3d1-     236 -  237
  285     H        2py      252 -  253
  286     H        2py      258 -  259
  287     H        2py      270 -  271
  288     H        2py      276 -  277

  Symmetries of electric field:  B1 (2)  B2 (3)  A1 (1)

  Symmetries of magnetic field:  B2 (3)  B1 (2)  A2 (4)


                     .---------------------------------------.
                     | Starting in Integral Section (HERMIT) |
                     `---------------------------------------'



 ***************************************************************************************
 ****************** Output from **INTEGRALS input processing (HERMIT) ******************
 ***************************************************************************************


 - Using defaults, no **INTEGRALS input found

 Default print level:        1

 Calculation of one-electron Hamiltonian integrals.

 Center of mass  (bohr):      0.000000000000      0.000000000000     -0.368950771952
 Operator center (bohr):      0.000000000000      0.000000000000      0.000000000000
 Gauge origin    (bohr):      0.000000000000      0.000000000000      0.000000000000
 Dipole origin   (bohr):      0.000000000000      0.000000000000      0.000000000000


     ************************************************************************
     ************************** Output from HERINT **************************
     ************************************************************************



                      Nuclear contribution to dipole moments
                      --------------------------------------

                 au               Debye          C m (/(10**-30)

      z    -31.48966072       -80.03872888      -266.98046179


  Time used in GABGEN     is       0.11 seconds
  Total CPU  time used in HERMIT:   0.44 seconds
  Total wall time used in HERMIT:   0.44 seconds


                        .----------------------------------.
                        | End of Integral Section (HERMIT) |
                        `----------------------------------'



                   .--------------------------------------------.
                   | Starting in Wave Function Section (SIRIUS) |
                   `--------------------------------------------'


 *** Output from Huckel module :

     Using EWMO model:          F
     Using EHT  model:          T
     Number of Huckel orbitals each symmetry:   24   17    6    3

 Huckel EHT eigenvalues for symmetry :  1
          -20.696385     -15.706036     -11.414977     -11.394566     -11.376739
          -11.362595      -1.748942      -1.556767      -1.199480      -0.942885
           -0.817691      -0.778503      -0.645194      -0.590435      -0.496029
           -0.429765      -0.325530      -0.246330      -0.225613      -0.213728
           -0.205829      -0.178735      -0.166392      -0.160471

 Huckel EHT eigenvalues for symmetry :  2
          -20.700012     -11.396471     -11.377855      -1.393039      -1.203579
           -0.880267      -0.646904      -0.566242      -0.526488      -0.480111
           -0.415041      -0.274126      -0.213266      -0.202804      -0.176237
           -0.165387      -0.163254

 Huckel EHT eigenvalues for symmetry :  3
           -0.799770      -0.673030      -0.466562      -0.384342      -0.281737
           -0.236536

 Huckel EHT eigenvalues for symmetry :  4
           -0.591488      -0.460189      -0.288846

 **********************************************************************
 *SIRIUS* a direct, restricted step, second order MCSCF program       *
 **********************************************************************

 
     Date and time (Linux)  : Fri Feb  7 10:01:17 2020
     Host name              : Lab2-333-NPs                            

 Title lines from ".mol" input file:
      nitrobenzene                                                           
      Generated by the Dalton Input File Plugin for Avogadro                 

 Print level on unit LUPRI =   2 is   0
 Print level on unit LUW4  =   2 is   5

@    MC-SCF optimization.

@    Multi-configurational response calculation.
@              Type: complete active space calculation (CAS).

@    This is a combination run starting with
@              a restricted, closed shell Hartree-Fock calculation
@              an MP2 calculation

 Fock matrices are calculated directly without use of integrals on disk.

 Initial molecular orbitals are obtained according to
 ".MOSTART EHT   " input option

     Wave function specification
     ============================
@    Wave function type        --- MC-SCF ---
@    Number of closed shell electrons          54
@    Number of electrons in active shells      10
@    Total charge of the molecule               0

@    Spin multiplicity and 2 M_S                3         2
@    Total number of symmetries                 4 (point group: C2v)
@    Reference state symmetry                   1 (irrep name : A1 )

     Orbital specifications
     ======================
@    Abelian symmetry species          All |    1    2    3    4
@                                          |  A1   B1   B2   A2 
                                       --- |  ---  ---  ---  ---
@    Inactive orbitals                  27 |   15   10    2    0
@    Active orbitals                     7 |    1    1    2    3
@    Secondary orbitals                254 |   99   80   44   31
@    Total number of orbitals          288 |  115   91   48   34
@    Number of basis functions         288 |  115   91   48   34

      ** Automatic occupation of RHF orbitals **

      -- Initial occupation of symmetries is determined from extended Huckel guess.           
      -- Initial occupation of symmetries is :
@    Occupied SCF orbitals              32 |   16   11    3    2

     Optimization information
     ========================
@    Number of determinants                  56
@    Number of orbital rotations           2762
     ------------------------------------------
@    Total number of variables             2818

     Maximum number of macro iterations      40
     Maximum number of micro iterations     960
     Threshold for MCSCF gradient      1.00D-05
     Number of initial trial vectors          2
     Number of initial CI iterations          3
     Number of simultaneous trial vectors     2

@    This calculation converges to state no.   2 for the specified symmetry and spin species.

     Maximum number of NEO/NR iterations  24

    INFORMATION: Switched to "new" integral transformation (from 1988 ;-) )
    because more than 255 basis functions.


 ***********************************************
 ***** DIIS acceleration of SCF iterations *****
 ***********************************************

 C1-DIIS algorithm; max error vectors =    8

 Automatic occupation of symmetries with  64 electrons.

 Iter     Total energy    Error norm  Delta(E)    SCF occupation
 -----------------------------------------------------------------------------
   1  Screening settings (-IFTHRS, JTDIIS, DIFDEN, times)   -8    1    T  2.87D+01  2.87D+01
@  1  -432.243111574       6.48D+00  -4.32D+02    16  11   3   2
      Virial theorem: -V/T =      1.998608
@    MULPOP   C       0.35; C   _1  0.26; C   _2  0.26; C   _1  0.24; C   _2  0.24; C       0.36; N       1.29; O   _1 -1.03; O   _2 -1.03; H   _1 -0.20; 
@             H   _2 -0.20; H   _1 -0.18; H   _2 -0.18; H      -0.19; 
   1  Level shift: doubly occupied orbital energies shifted by -2.00D-01
 -----------------------------------------------------------------------------
   2  Screening settings (-IFTHRS, JTDIIS, DIFDEN, times)   -8    2    T  2.84D+01  2.84D+01
@  2  -433.832403635       2.96D+00  -1.59D+00    16  11   3   2
      Virial theorem: -V/T =      2.001482
@    MULPOP   C       0.96; C   _1  0.33; C   _2  0.33; C   _1  0.34; C   _2  0.34; C       0.41; N       0.31; O   _1 -0.52; O   _2 -0.52; H   _1 -0.40; 
@             H   _2 -0.40; H   _1 -0.39; H   _2 -0.39; H      -0.40; 
   2  Level shift: doubly occupied orbital energies shifted by -1.00D-01
 -----------------------------------------------------------------------------
   3  Screening settings (-IFTHRS, JTDIIS, DIFDEN, times)   -8    3    T  2.87D+01  2.87D+01
@  3  -434.206056162       7.23D-01  -3.74D-01    16  11   3   2
      Virial theorem: -V/T =      2.000827
@    MULPOP   C       1.73; C   _1  0.22; C   _2  0.22; C   _1  0.44; C   _2  0.44; C       0.29; N       0.67; O   _1 -0.90; O   _2 -0.90; H   _1 -0.45; 
@             H   _2 -0.45; H   _1 -0.44; H   _2 -0.44; H      -0.44; 
   3  Level shift: doubly occupied orbital energies shifted by -2.50D-02
 -----------------------------------------------------------------------------
   4  Screening settings (-IFTHRS, JTDIIS, DIFDEN, times)   -8    4    T  2.83D+01  2.83D+01
@  4  -434.232053268       1.88D-01  -2.60D-02    16  11   3   2
      Virial theorem: -V/T =      2.002648
@    MULPOP   C       1.83; C   _1  0.17; C   _2  0.17; C   _1  0.51; C   _2  0.51; C       0.29; N       0.51; O   _1 -0.87; O   _2 -0.87; H   _1 -0.45; 
@             H   _2 -0.45; H   _1 -0.46; H   _2 -0.46; H      -0.46; 
   4  Level shift: doubly occupied orbital energies shifted by -1.25D-02
 -----------------------------------------------------------------------------
   5  Screening settings (-IFTHRS, JTDIIS, DIFDEN, times)  -10    5    F  2.89D+01  2.89D+01
@  5  -434.234782394       5.55D-02  -2.73D-03    16  11   3   2
      Virial theorem: -V/T =      2.002065
@    MULPOP   C       1.86; C   _1  0.15; C   _2  0.15; C   _1  0.51; C   _2  0.51; C       0.27; N       0.51; O   _1 -0.87; O   _2 -0.87; H   _1 -0.44; 
@             H   _2 -0.44; H   _1 -0.44; H   _2 -0.44; H      -0.44; 
 -----------------------------------------------------------------------------
   6  Screening settings (-IFTHRS, JTDIIS, DIFDEN, times)  -10    6    T  2.86D+01  2.86D+01
@  6  -434.235120498       1.54D-02  -3.38D-04    16  11   3   2
      Virial theorem: -V/T =      2.001986
@    MULPOP   C       1.88; C   _1  0.14; C   _2  0.14; C   _1  0.51; C   _2  0.51; C       0.27; N       0.49; O   _1 -0.87; O   _2 -0.87; H   _1 -0.44; 
@             H   _2 -0.44; H   _1 -0.44; H   _2 -0.44; H      -0.44; 
 -----------------------------------------------------------------------------
   7  Screening settings (-IFTHRS, JTDIIS, DIFDEN, times)  -13    7    F  2.89D+01  2.89D+01
@  7  -434.235152875       6.15D-03  -3.24D-05    16  11   3   2
      Virial theorem: -V/T =      2.002022
@    MULPOP   C       1.89; C   _1  0.14; C   _2  0.14; C   _1  0.51; C   _2  0.51; C       0.27; N       0.49; O   _1 -0.87; O   _2 -0.87; H   _1 -0.44; 
@             H   _2 -0.44; H   _1 -0.44; H   _2 -0.44; H      -0.44; 
 -----------------------------------------------------------------------------
   8  Screening settings (-IFTHRS, JTDIIS, DIFDEN, times)  -13    8    T  2.87D+01  2.87D+01
@  8  -434.235157822       2.10D-03  -4.95D-06    16  11   3   2
      Virial theorem: -V/T =      2.002010
@    MULPOP   C       1.89; C   _1  0.14; C   _2  0.14; C   _1  0.51; C   _2  0.51; C       0.27; N       0.48; O   _1 -0.87; O   _2 -0.87; H   _1 -0.44; 
@             H   _2 -0.44; H   _1 -0.44; H   _2 -0.44; H      -0.44; 
 -----------------------------------------------------------------------------
   9  Screening settings (-IFTHRS, JTDIIS, DIFDEN, times)  -13    9    T  2.86D+01  2.86D+01
@  9  -434.235158374       6.68D-04  -5.52D-07    16  11   3   2
      Virial theorem: -V/T =      2.002007
@    MULPOP   C       1.89; C   _1  0.14; C   _2  0.14; C   _1  0.51; C   _2  0.51; C       0.27; N       0.48; O   _1 -0.87; O   _2 -0.87; H   _1 -0.44; 
@             H   _2 -0.44; H   _1 -0.44; H   _2 -0.44; H      -0.44; 
 -----------------------------------------------------------------------------
  10  Screening settings (-IFTHRS, JTDIIS, DIFDEN, times)  -13   10    T  2.86D+01  2.86D+01
@ 10  -434.235158432       2.26D-04  -5.75D-08    16  11   3   2
      Virial theorem: -V/T =      2.002009
@    MULPOP   C       1.89; C   _1  0.14; C   _2  0.14; C   _1  0.51; C   _2  0.51; C       0.27; N       0.48; O   _1 -0.87; O   _2 -0.87; H   _1 -0.44; 
@             H   _2 -0.44; H   _1 -0.44; H   _2 -0.44; H      -0.44; 
 -----------------------------------------------------------------------------
  11  Screening settings (-IFTHRS, JTDIIS, DIFDEN, times)  -13   11    T  2.93D+01  2.93D+01
@ 11  -434.235158441       8.66D-05  -9.53D-09    16  11   3   2
      Virial theorem: -V/T =      2.002008
@    MULPOP   C       1.89; C   _1  0.14; C   _2  0.14; C   _1  0.51; C   _2  0.51; C       0.27; N       0.48; O   _1 -0.87; O   _2 -0.87; H   _1 -0.44; 
@             H   _2 -0.44; H   _1 -0.44; H   _2 -0.44; H      -0.44; 
 -----------------------------------------------------------------------------
  12  Screening settings (-IFTHRS, JTDIIS, DIFDEN, times)  -13   12    T  2.87D+01  2.87D+01
@ 12  -434.235158443       3.67D-05  -1.73D-09    16  11   3   2
      Virial theorem: -V/T =      2.002008
@    MULPOP   C       1.89; C   _1  0.14; C   _2  0.14; C   _1  0.51; C   _2  0.51; C       0.27; N       0.48; O   _1 -0.87; O   _2 -0.87; H   _1 -0.44; 
@             H   _2 -0.44; H   _1 -0.44; H   _2 -0.44; H      -0.44; 
 -----------------------------------------------------------------------------
  13  Screening settings (-IFTHRS, JTDIIS, DIFDEN, times)  -13   13    T  2.88D+01  2.88D+01
@ 13  -434.235158443       2.03D-05  -2.72D-10    16  11   3   2
      Virial theorem: -V/T =      2.002008
@    MULPOP   C       1.89; C   _1  0.14; C   _2  0.14; C   _1  0.51; C   _2  0.51; C       0.27; N       0.48; O   _1 -0.87; O   _2 -0.87; H   _1 -0.44; 
@             H   _2 -0.44; H   _1 -0.44; H   _2 -0.44; H      -0.44; 
 -----------------------------------------------------------------------------
  14  Screening settings (-IFTHRS, JTDIIS, DIFDEN, times)  -13   14    T  2.87D+01  2.87D+01
@ 14  -434.235158444       7.18D-06  -1.25D-10    16  11   3   2
      Virial theorem: -V/T =      2.002008
@    MULPOP   C       1.89; C   _1  0.14; C   _2  0.14; C   _1  0.51; C   _2  0.51; C       0.27; N       0.48; O   _1 -0.87; O   _2 -0.87; H   _1 -0.44; 
@             H   _2 -0.44; H   _1 -0.44; H   _2 -0.44; H      -0.44; 
 -----------------------------------------------------------------------------
  15  Screening settings (-IFTHRS, JTDIIS, DIFDEN, times)  -13   15    T  2.83D+01  2.83D+01
@ 15  -434.235158444       2.82D-06  -1.42D-11    16  11   3   2
      Virial theorem: -V/T =      2.002008
@    MULPOP   C       1.89; C   _1  0.14; C   _2  0.14; C   _1  0.51; C   _2  0.51; C       0.27; N       0.48; O   _1 -0.87; O   _2 -0.87; H   _1 -0.44; 
@             H   _2 -0.44; H   _1 -0.44; H   _2 -0.44; H      -0.44; 
 -----------------------------------------------------------------------------
  16  Screening settings (-IFTHRS, JTDIIS, DIFDEN, times)  -13   16    T  2.85D+01  2.85D+01
@ 16  -434.235158444       1.25D-06   4.55D-13    16  11   3   2
      Virial theorem: -V/T =      2.002008
@    MULPOP   C       1.89; C   _1  0.14; C   _2  0.14; C   _1  0.51; C   _2  0.51; C       0.27; N       0.48; O   _1 -0.87; O   _2 -0.87; H   _1 -0.44; 
@             H   _2 -0.44; H   _1 -0.44; H   _2 -0.44; H      -0.44; 
 -----------------------------------------------------------------------------
  17  Screening settings (-IFTHRS, JTDIIS, DIFDEN, times)  -13   17    T  2.81D+01  2.82D+01
@ 17  -434.235158444       5.10D-07  -4.77D-12    16  11   3   2

@ *** DIIS converged in  17 iterations !
@     Converged SCF energy, gradient:   -434.235158443564    5.10D-07
    - total time used in SIRFCK :              0.00 seconds

 --- Writing SIRIFC interface file

 CPU and wall time for SCF :     487.531     487.730


 ----- Output from SIRIUS MP2 module -----

 Reference: H.J.Aa.Jensen, P.Jorgensen, H.Agren, and J.Olsen,
            J. Chem. Phys. 88, 3834 (1988); 89, 5354 (1988)

 Checking that the closed shell orbitals are canonical Hartree-Fock orbitals

    Number of electrons  :   64
    Closed shell orbitals:   16   11    3    2

 Generating Fock matrix

 Hartree-Fock electronic energy:        -845.903856430805
 Hartree-Fock total      energy:        -434.235158443567

 Hartree-Fock orbital energies, symmetry 1 ( A1 ),   16 occupied SCF orbitals

       -20.61025001   -15.86032053   -11.32331144   -11.28651781   -11.28347981
       -11.27583570    -1.61135924    -1.20474553    -1.09767555    -0.96491086
        -0.83276803    -0.78276387    -0.71222941    -0.65384443    -0.55893862
        -0.49917538     0.02610291     0.04386438     0.06211794     0.10434734
         0.13047879     0.13456919     0.15036806     0.15650884     0.17301648
         0.18124448     0.21373853     0.25812065     0.28845600     0.29980221
         0.31317743     0.33676243     0.34938911     0.35267964     0.37062871
         0.39604312     0.41240559     0.42989777     0.45707400     0.48424448
         0.51821539     0.56004996     0.57937679     0.59364579     0.63082781
         0.64903542     0.65809435     0.67557723     0.72667124     0.73475561
         0.74153694     0.83661766     0.88531383     0.93306279     0.95522454
         0.96428842     1.00566497     1.06090141     1.07886119     1.13535539
         1.27360954     1.35931008     1.37625954     1.45117583     1.49650013
         1.50910065     1.54900589     1.56937006     1.58045508     1.61030628
         1.67968044     1.71583611     1.74568415     1.77519193     1.87090898
         1.93816610     1.95286306     2.00769434     2.01974105     2.13251350
         2.17860837     2.23621037     2.30303591     2.37575030     2.41858392
         2.44282452     2.54703191     2.69710756     2.76804540     2.82714002
         2.88325889     2.95681703     3.03644065     3.14614163     3.27015093
         3.42439812     3.75303343     4.00275734     4.08168890     4.22971787
        19.80330143    20.33236788    20.45219909    20.61837550    23.35135142
        23.39790580    23.42475037    23.81640766    23.91347045    24.12111863
        27.06995337    31.27221229    35.78938824    39.72965190    39.79171803

 Hartree-Fock orbital energies, symmetry 2 ( B1 ),   11 occupied SCF orbitals

       -20.61030545   -11.28655591   -11.27594024    -1.39736954    -1.05773861
        -0.86972740    -0.72776016    -0.65936502    -0.62792172    -0.53420897
        -0.48878348     0.03563604     0.05986933     0.12991084     0.13282738
         0.15299834     0.17434603     0.18331735     0.21411036     0.26195113
         0.28888364     0.31317063     0.33370763     0.36070973     0.36851335
         0.39353370     0.42138047     0.43757978     0.46378947     0.56650508
         0.57577851     0.58837384     0.64776534     0.66669000     0.67793752
         0.69760926     0.75567701     0.76150599     0.82795795     0.84339794
         0.86333468     0.92539815     1.01609577     1.14177563     1.20474625
         1.24700449     1.32435316     1.39960958     1.41229577     1.48463061
         1.57200678     1.58813725     1.61731735     1.63643871     1.69828345
         1.75757591     1.76921123     1.78798305     1.88647411     1.92827477
         2.00149993     2.08251597     2.23061338     2.26362708     2.34162089
         2.34478707     2.38598189     2.52360382     2.57804566     2.76688472
         2.89692990     2.93718647     3.10049687     3.28729892     3.33494699
         3.41187990     3.75145617     3.85134462     4.21290646    20.29703880
        20.47700213    22.89997597    23.33754842    23.38504982    23.93699903
        24.11894141    24.30629359    31.43956982    35.56340401    39.64266698
        40.05939511

 Hartree-Fock orbital energies, symmetry 3 ( B2 ),    3 occupied SCF orbitals

        -0.71827907    -0.53933536    -0.38026912     0.03367331     0.10602172
         0.12529600     0.13831667     0.18349429     0.19196260     0.24640831
         0.31781281     0.34104190     0.37476359     0.44387801     0.53256814
         0.58633184     0.64202720     0.71238643     0.78907672     0.84146983
         0.86993881     0.92011631     0.92489663     0.98581311     1.14321610
         1.27955661     1.28716472     1.47023581     1.47443518     1.61367494
         1.67239730     1.70616326     1.83924992     1.89840902     1.98029535
         2.08055319     2.17557282     2.29571265     2.53917275     2.67583236
         3.66548385     3.79420280    22.54133382    22.68926207    22.82579422
        23.02439543    30.55609678    39.42297904

 Hartree-Fock orbital energies, symmetry 4 ( A2 ),    2 occupied SCF orbitals

        -0.45209399    -0.37146372     0.08428397     0.13069378     0.18533170
         0.29826732     0.41224247     0.48977671     0.54579177     0.65829226
         0.73480631     0.89434347     0.89941313     0.94228677     1.03943179
         1.08606323     1.21255904     1.24747504     1.33875894     1.48428514
         1.66991164     1.68727925     1.85914560     1.99196636     2.11487468
         2.20885972     2.35237204     2.47303734     2.60370078     3.66579875
         3.99481579    22.69032801    22.85679005    39.49563577

    E(LUMO) :     0.02610291   (in symmetry 1)
  - E(HOMO) :    -0.37146372   (in symmetry 4)
  --------------------------
    gap     :     0.39756663

---> (Re)generating AOTWOINT


     ************************************************************************
     ************************** Output from HERINT **************************
     ************************************************************************


 Threshold for neglecting two-electron integrals:  1.00D-12
 HERMIT - Number of two-electron integrals written:   203250543 ( 23.5% )
 HERMIT - Megabytes written:                           3102.650

  Time used in TWOINT     is      39.25 seconds

 2-el. integral transformation level 5: Total CPU and WALL times (sec)     416.125     417.803

 MP2 move   0.993931 electrons to unoccupied HF orbitals


@   Hartree-Fock total energy   :          -434.2351584436
@   + MP2 contribution          :            -1.7255862673
@   = MP2 second order energy   :          -435.9607447109

 Natural orbital occupation numbers, symmetry 1 (irrep A1 )
 Sum =    32.00717972; RHF =    32.00000000; Difference =     0.00717972

         1.99929018     1.99907566     1.99876147     1.99875650     1.99875175
         1.99874772     1.98695466     1.98413515     1.97946055     1.97232109
         1.96895479     1.96826625     1.96550898     1.96217541     1.95510934
         1.94588782     0.04179878     0.03587722     0.02546169     0.02381325
         0.01921803     0.01859382     0.01730872     0.01644735     0.01377305
         0.01269244     0.01173548     0.00982441     0.00853601     0.00784820
         0.00749007     0.00669379     0.00563843     0.00454117     0.00307339
         0.00294882     0.00271388     0.00262436     0.00221976     0.00202163
         0.00184845     0.00166958     0.00160710     0.00131275     0.00121000
         0.00116500     0.00105934     0.00096217     0.00071458     0.00065150
         0.00061159     0.00053678     0.00049832     0.00045989     0.00043938
         0.00041582     0.00040639     0.00038562     0.00037674     0.00035204
         0.00034278     0.00032447     0.00031371     0.00029307     0.00026735
         0.00026009     0.00022466     0.00022017     0.00020414     0.00019556
         0.00018663     0.00018564     0.00017629     0.00017115     0.00016741
         0.00016179     0.00015556     0.00015026     0.00014037     0.00013310
         0.00012634     0.00012450     0.00012186     0.00011130     0.00010441
         0.00009389     0.00007765     0.00007118     0.00005890     0.00005602
         0.00005210     0.00004054     0.00003437     0.00002787     0.00002116
         0.00001716     0.00001452     0.00001223     0.00001134     0.00000934
         0.00000870     0.00000841     0.00000703     0.00000315     0.00000300
         0.00000199     0.00000108     0.00000056     0.00000036     0.00000018
         0.00000016    -0.00000000    -0.00000010    -0.00000051    -0.00004927

 Natural orbital occupation numbers, symmetry 2 (irrep B1 )
 Sum =    21.95424619; RHF =    22.00000000; Difference =    -0.04575381

         1.99929006     1.99875723     1.99875092     1.98405791     1.98003227
         1.97274235     1.96249920     1.96050876     1.95484459     1.95431589
         1.94667374     0.03859826     0.02538495     0.02377419     0.01917788
         0.01659390     0.01593419     0.01521132     0.01127794     0.01048360
         0.00910272     0.00764716     0.00579955     0.00538337     0.00517095
         0.00388068     0.00312224     0.00274880     0.00240554     0.00212794
         0.00172937     0.00162228     0.00152191     0.00131751     0.00118804
         0.00102752     0.00097447     0.00069602     0.00064018     0.00056650
         0.00048836     0.00043998     0.00042239     0.00037247     0.00035341
         0.00033610     0.00030176     0.00029110     0.00026928     0.00025964
         0.00023887     0.00021116     0.00019795     0.00018787     0.00018261
         0.00017741     0.00016984     0.00016927     0.00016011     0.00015402
         0.00014334     0.00013369     0.00012906     0.00012561     0.00011860
         0.00011289     0.00009443     0.00008979     0.00006924     0.00005281
         0.00004539     0.00003667     0.00003033     0.00002884     0.00002269
         0.00001527     0.00001407     0.00001134     0.00001063     0.00000840
         0.00000468     0.00000365     0.00000176     0.00000123     0.00000060
         0.00000029     0.00000014    -0.00000002    -0.00000022    -0.00000068
        -0.00002382

 Natural orbital occupation numbers, symmetry 3 (irrep B2 )
 Sum =     6.07768923; RHF =     6.00000000; Difference =     0.07768923

         1.95039522     1.94430660     1.90919901     0.10171046     0.06751304
         0.02961004     0.01048321     0.01029382     0.00871220     0.00796981
         0.00618768     0.00529325     0.00448391     0.00390218     0.00342428
         0.00305840     0.00153128     0.00143813     0.00098987     0.00088395
         0.00086313     0.00066034     0.00060417     0.00049614     0.00047142
         0.00041861     0.00033440     0.00028950     0.00025046     0.00023019
         0.00019811     0.00019582     0.00018982     0.00017740     0.00015280
         0.00013050     0.00012149     0.00011069     0.00010056     0.00008308
         0.00007996     0.00006292     0.00003621     0.00002039     0.00001045
         0.00000803     0.00000505     0.00000125

 Natural orbital occupation numbers, symmetry 4 (irrep A2 )
 Sum =     3.96088486; RHF =     4.00000000; Difference =    -0.03911514

         1.91631735     1.90848550     0.06648986     0.01456281     0.01038887
         0.00931649     0.00790294     0.00570311     0.00507346     0.00405332
         0.00357862     0.00152978     0.00121073     0.00093480     0.00077757
         0.00072745     0.00067138     0.00056281     0.00040620     0.00036999
         0.00033936     0.00029483     0.00021657     0.00019692     0.00016476
         0.00013257     0.00011681     0.00010411     0.00009319     0.00006947
         0.00004999     0.00002057     0.00001745     0.00000522

 Time used for MP2 natural orbitals :     448.766 CPU seconds,     450.430 wall seconds.

 CPU and wall time for MP2 :     448.766     450.430


        SIRIUS MCSCF optimization (SIROPT)
 ================================================


 Fock matrix screening setting for SIRCNO: IFTHRS =    9


 ----- Output from SIRIUS CI module (CICTL) -----




 2-el. integral transformation level 0: Total CPU and WALL times (sec)     101.031     101.085


 --- SIRCI.CIST1: plus combination of all degenerate
                 configurations is used as start vectors.


 (CIST1) 18 lowest diagonal elements:

 Element no. Config.no.    Active energy      Total energy

         1 :          1    -17.1118611328   -434.0027950364
         2 :         22    -16.9954453813   -433.8863792849
         3 :         28    -16.8553129351   -433.7462468387
         4 :          6    -16.8380616774   -433.7289955810
         5 :          5    -16.8359423855   -433.7268762891
         6 :          3    -16.7874689342   -433.6784028378
         7 :         24    -16.7455522576   -433.6364861611
         8 :          2    -16.7317044691   -433.6226383727
         9 :          7    -16.7282398661   -433.6191737696
        10 :         23    -16.7129500069   -433.6038839105
        11 :         25    -16.6880527346   -433.5789866382
        12 :         19    -16.6484766973   -433.5394106009
        13 :         29    -16.5585211402   -433.4494550438
        14 :         12    -16.5459214272   -433.4368553308
        15 :         11    -16.5318627014   -433.4227966050
        16 :         27    -16.4238631903   -433.3147970939
        17 :         13    -16.4049723582   -433.2959062618
        18 :         26    -16.3910498916   -433.2819837951


 Convergence threshold for CI optimization :     0.00000500



 *** Reached maximum number of CI iterations:    3
              2 CI roots are not converged.


@ Final CI energies and residuals in symmetry 1 (irrep A1 )
@    1     -434.038828057456442       8.57D-03
@    2     -433.901530961928984       5.74D-03
@    3     -433.823543505882526       4.56D-02
@    4     -433.737042063277215       7.64D-02
@    5     -433.679624081051259       8.28D-02
@    6     -433.662362272621920       1.07D-01

   --- OUTPUT FROM SIRCNO     Keyword = FD+NO 


 Occupations of CAS natural orbitals:

 Symmetry  1 ( irrep A1  in C2v )

   1.999991939

 Symmetry  2 ( irrep B1  in C2v )

   1.999997228

 Symmetry  3 ( irrep B2  in C2v )

   1.008991378   0.991316170

 Symmetry  4 ( irrep A2  in C2v )

   1.991871037   1.963370693   0.044461554


 --- MACRO ITERATION  1 ---
 --------------------------

 2-el. integral transformation level 3: Total CPU and WALL times (sec)     102.516     102.569

 Fock matrix screening setting for this macro iteration: 10^( -9)

 Total MCSCF energy       :          -433.901530962061543  (MACRO    1)

 - Nuclear repulsion      :           411.668697987238261
 - Inactive energy        :          -828.559631891423351
 - Active energy          :           -17.010597057876435

 Norm of total gradient   :             1.329586165523
 -    of CI gradient      :             0.011484913115
 -    of orbital gradient :             1.329536561483
      Virial theorem: -V/T =      1.995190
@    MULPOP   C       1.88; C   _1  0.35; C   _2  0.35; C   _1  0.53; C   _2  0.53; C       0.60; N       0.06; O   _1 -0.95; O   _2 -0.95; H   _1 -0.49; 
@             H   _2 -0.49; H   _1 -0.47; H   _2 -0.47; H      -0.47; 

 (SIRNEO) iteration (  1,  4)
 Micro iteration termination criterion met, EVAL(ISTATE+1) = -1.05D-01

   --- OUTPUT FROM SIRCNO     Keyword = FD+NO 


 Occupations of CAS natural orbitals:

 Symmetry  1 ( irrep A1  in C2v )

   1.999962135

 Symmetry  2 ( irrep B1  in C2v )

   1.999957554

 Symmetry  3 ( irrep B2  in C2v )

   1.153890160   0.858708937

 Symmetry  4 ( irrep A2  in C2v )

   1.982493553   1.821841199   0.183146463


 --- MACRO ITERATION  2 ---
 --------------------------

 2-el. integral transformation level 3: Total CPU and WALL times (sec)     103.391     103.472

 Fock matrix screening setting for this macro iteration: 10^( -9)

 Total MCSCF energy       :          -433.994324294506214  (MACRO    2)

 - Nuclear repulsion      :           411.668697987238261
 - Inactive energy        :          -828.607337047916189
 - Active energy          :           -17.055685233828310

 Norm of total gradient   :             0.916730891403
 -    of CI gradient      :             0.087341834383
 -    of orbital gradient :             0.912560645228
      Virial theorem: -V/T =      1.997207
@    MULPOP   C       1.78; C   _1  0.33; C   _2  0.33; C   _1  0.45; C   _2  0.45; C       0.46; N       0.30; O   _1 -0.85; O   _2 -0.85; H   _1 -0.49; 
@             H   _2 -0.49; H   _1 -0.46; H   _2 -0.46; H      -0.51; 

 Residual norm when dim(red L) =  11
 NEO root     CSF        orbital          total
    1     0.06650944     0.06996497     0.09653291 converged

 (NEONEX) NEO auxiliary root no.  1 is converged.

 (SIRNEO) iteration (  2,  7)
 Micro iteration termination criterion met, EVAL(ISTATE+1) = -1.57D-03

   --- OUTPUT FROM SIRCNO     Keyword = FD+NO 


 Occupations of CAS natural orbitals:

 Symmetry  1 ( irrep A1  in C2v )

   1.999942331

 Symmetry  2 ( irrep B1  in C2v )

   1.999930219

 Symmetry  3 ( irrep B2  in C2v )

   1.247912235   0.772694878

 Symmetry  4 ( irrep A2  in C2v )

   1.974667995   1.731282094   0.273570248


 --- MACRO ITERATION  3 ---
 --------------------------

 2-el. integral transformation level 3: Total CPU and WALL times (sec)     102.469     102.562

 Fock matrix screening setting for this macro iteration: 10^( -9)

 Total MCSCF energy       :          -434.056195330756452  (MACRO    3)

 - Nuclear repulsion      :           411.668697987238261
 - Inactive energy        :          -828.091771093337911
 - Active energy          :           -17.633122224656805

 Norm of total gradient   :             0.251817312313
 -    of CI gradient      :             0.074426413779
 -    of orbital gradient :             0.240567387051
      Virial theorem: -V/T =      2.001170
@    MULPOP   C       1.82; C   _1  0.18; C   _2  0.18; C   _1  0.55; C   _2  0.55; C       0.26; N       0.55; O   _1 -1.01; O   _2 -1.01; H   _1 -0.43; 
@             H   _2 -0.43; H   _1 -0.42; H   _2 -0.42; H      -0.39; 

 Residual norm when dim(red L) =  11
 NEO root     CSF        orbital          total
    2     0.04581301     0.01422530     0.04797073 converged

 (NEONEX) NEO vector is converged.

   --- OUTPUT FROM SIRCNO     Keyword = FD+NO 


 Occupations of CAS natural orbitals:

 Symmetry  1 ( irrep A1  in C2v )

   1.999906739

 Symmetry  2 ( irrep B1  in C2v )

   1.999929995

 Symmetry  3 ( irrep B2  in C2v )

   1.498856246   0.536017495

 Symmetry  4 ( irrep A2  in C2v )

   1.958025364   1.487689363   0.519574798


 --- MACRO ITERATION  4 ---
 --------------------------

 2-el. integral transformation level 3: Total CPU and WALL times (sec)     103.016     103.080

 Fock matrix screening setting for this macro iteration: 10^( -9)

 Total MCSCF energy       :          -434.058920264253686  (MACRO    4)

 - Nuclear repulsion      :           411.668697987238261
 - Inactive energy        :          -823.622738970839691
 - Active energy          :           -22.104879280652277

 Norm of total gradient   :             0.515811166724
 -    of CI gradient      :             0.077627834649
 -    of orbital gradient :             0.509936347994
      Virial theorem: -V/T =      2.000999
@    MULPOP   C       1.95; C   _1  0.13; C   _2  0.13; C   _1  0.52; C   _2  0.52; C       0.31; N       0.46; O   _1 -0.94; O   _2 -0.94; H   _1 -0.44; 
@             H   _2 -0.44; H   _1 -0.43; H   _2 -0.43; H      -0.41; 

 Residual norm when dim(red L) =   5
 NEO root     CSF        orbital          total
    2     0.08203838     0.02984389     0.08729808 converged

 (NEONEX) NEO vector is converged.

   --- OUTPUT FROM SIRCNO     Keyword = FD+NO 


 Occupations of CAS natural orbitals:

 Symmetry  1 ( irrep A1  in C2v )

   1.999909790

 Symmetry  2 ( irrep B1  in C2v )

   1.999933064

 Symmetry  3 ( irrep B2  in C2v )

   1.487202504   0.546697041

 Symmetry  4 ( irrep A2  in C2v )

   1.959092502   1.499057319   0.508107780


 --- MACRO ITERATION  5 ---
 --------------------------

 2-el. integral transformation level 3: Total CPU and WALL times (sec)     102.547     102.583

 Fock matrix screening setting for this macro iteration: 10^( -9)

 Total MCSCF energy       :          -434.062580771384035  (MACRO    5)

 - Nuclear repulsion      :           411.668697987238261
 - Inactive energy        :          -823.076664709869647
 - Active energy          :           -22.654614048752656

 Norm of total gradient   :             0.088208022917
 -    of CI gradient      :             0.082193123565
 -    of orbital gradient :             0.032014773865
      Virial theorem: -V/T =      2.000828
@    MULPOP   C       1.97; C   _1  0.13; C   _2  0.13; C   _1  0.52; C   _2  0.52; C       0.30; N       0.46; O   _1 -0.94; O   _2 -0.94; H   _1 -0.43; 
@             H   _2 -0.43; H   _1 -0.43; H   _2 -0.43; H      -0.41; 

 (SIRNEO) iteration (  5,  5)
 Micro iteration termination criterion met, EVAL(ISTATE+1) = -2.80D-03

   --- OUTPUT FROM SIRCNO     Keyword = FD+NO 


 Occupations of CAS natural orbitals:

 Symmetry  1 ( irrep A1  in C2v )

   1.999512149

 Symmetry  2 ( irrep B1  in C2v )

   1.999951776

 Symmetry  3 ( irrep B2  in C2v )

   1.528905353   0.497280429

 Symmetry  4 ( irrep A2  in C2v )

   1.972903925   1.455114244   0.546332124


 --- MACRO ITERATION  6 ---
 --------------------------

 2-el. integral transformation level 3: Total CPU and WALL times (sec)     103.000     103.086

 Fock matrix screening setting for this macro iteration: 10^( -9)

 Total MCSCF energy       :          -434.060939759805990  (MACRO    6)

 - Nuclear repulsion      :           411.668697987238261
 - Inactive energy        :          -809.485182478352272
 - Active energy          :           -36.244455268691986

 Norm of total gradient   :             0.622617103772
 -    of CI gradient      :             0.614484859541
 -    of orbital gradient :             0.100301621638
      Virial theorem: -V/T =      2.000892
@    MULPOP   C       1.96; C   _1  0.12; C   _2  0.12; C   _1  0.53; C   _2  0.53; C       0.30; N       0.47; O   _1 -0.93; O   _2 -0.93; H   _1 -0.43; 
@             H   _2 -0.43; H   _1 -0.43; H   _2 -0.43; H      -0.42; 

 (SIRSTP) Energy difference;
 actual, predicted and ratio:   0.001641011578045  -0.004658877980415   -0.352233

 (SIRSTP) step is too large -- backstep

   --- OUTPUT FROM SIRCNO     Keyword = FD+NO 


 Occupations of CAS natural orbitals:

 Symmetry  1 ( irrep A1  in C2v )

   1.999831748

 Symmetry  2 ( irrep B1  in C2v )

   1.999949974

 Symmetry  3 ( irrep B2  in C2v )

   1.525696837   0.500772868

 Symmetry  4 ( irrep A2  in C2v )

   1.972137703   1.459954469   0.541656400


 Optimization control: Step was too large, we backstep


 --- MACRO ITERATION  6 BACKSTEP NO.  1 ---

 2-el. integral transformation level 3: Total CPU and WALL times (sec)     102.797     102.855

 Fock matrix screening setting for this macro iteration: 10^( -9)

 Total MCSCF energy       :          -434.064401863437695  (MACRO    6)

 - Nuclear repulsion      :           411.668697987238261
 - Inactive energy        :          -815.078873496459437
 - Active energy          :           -30.654226354216497

 Norm of total gradient   :             0.273873977279
 -    of CI gradient      :             0.266472834946
 -    of orbital gradient :             0.063239099193
      Virial theorem: -V/T =      2.000869
@    MULPOP   C       1.97; C   _1  0.12; C   _2  0.12; C   _1  0.51; C   _2  0.51; C       0.31; N       0.47; O   _1 -0.93; O   _2 -0.93; H   _1 -0.43; 
@             H   _2 -0.43; H   _1 -0.44; H   _2 -0.44; H      -0.42; 

 (SIRNEO) iteration (  6,  3)
 Micro iteration termination criterion met, EVAL(ISTATE+1) = -4.75D-03

   --- OUTPUT FROM SIRCNO     Keyword = FD+NO 


 Occupations of CAS natural orbitals:

 Symmetry  1 ( irrep A1  in C2v )

   1.999956419

 Symmetry  2 ( irrep B1  in C2v )

   1.999960865

 Symmetry  3 ( irrep B2  in C2v )

   1.535471077   0.487539276

 Symmetry  4 ( irrep A2  in C2v )

   1.975702577   1.442574566   0.558795220


 --- MACRO ITERATION  7 ---
 --------------------------

 2-el. integral transformation level 3: Total CPU and WALL times (sec)     103.984     104.017

 Fock matrix screening setting for this macro iteration: 10^( -9)

 Total MCSCF energy       :          -434.065559398391258  (MACRO    7)

 - Nuclear repulsion      :           411.668697987238261
 - Inactive energy        :          -808.856537160964990
 - Active energy          :           -36.877720224664550

 Norm of total gradient   :             0.197349442525
 -    of CI gradient      :             0.184602690031
 -    of orbital gradient :             0.069775707079
      Virial theorem: -V/T =      2.000875
@    MULPOP   C       1.95; C   _1  0.11; C   _2  0.11; C   _1  0.54; C   _2  0.54; C       0.29; N       0.49; O   _1 -0.94; O   _2 -0.94; H   _1 -0.43; 
@             H   _2 -0.43; H   _1 -0.44; H   _2 -0.44; H      -0.42; 

 Residual norm when dim(red L) =  12
 NEO root     CSF        orbital          total
    2     0.02736170     0.01317880     0.03037010 converged

 (NEONEX) NEO vector is converged.

   --- OUTPUT FROM SIRCNO     Keyword = FD+NO 


 Occupations of CAS natural orbitals:

 Symmetry  1 ( irrep A1  in C2v )

   1.999997677

 Symmetry  2 ( irrep B1  in C2v )

   1.999961175

 Symmetry  3 ( irrep B2  in C2v )

   1.551632796   0.472015720

 Symmetry  4 ( irrep A2  in C2v )

   1.974989656   1.426379034   0.575023941


 --- MACRO ITERATION  8 ---
 --------------------------

 2-el. integral transformation level 3: Total CPU and WALL times (sec)     102.984     103.111

 Fock matrix screening setting for this macro iteration: 10^( -9)

 Total MCSCF energy       :          -434.066601066140493  (MACRO    8)

 - Nuclear repulsion      :           411.668697987238261
 - Inactive energy        :          -805.305587775785625
 - Active energy          :           -40.429711277593128

 Norm of total gradient   :             0.066853836940
 -    of CI gradient      :             0.057631115785
 -    of orbital gradient :             0.033883476901
      Virial theorem: -V/T =      2.000871
@    MULPOP   C       1.98; C   _1  0.12; C   _2  0.12; C   _1  0.50; C   _2  0.50; C       0.33; N       0.47; O   _1 -0.93; O   _2 -0.93; H   _1 -0.44; 
@             H   _2 -0.44; H   _1 -0.44; H   _2 -0.44; H      -0.42; 

 Residual norm when dim(red L) =  12
 NEO root     CSF        orbital          total
    1     0.08021890     0.04063427     0.08992339 converged

 (NEONEX) NEO auxiliary root no.  1 is converged.

 Residual norm when dim(red L) =  22
 NEO root     CSF        orbital          total
    2     0.00619041     0.00309577     0.00692134 converged

 (NEONEX) NEO vector is converged.

   --- OUTPUT FROM SIRCNO     Keyword = FD+NO 


 Occupations of CAS natural orbitals:

 Symmetry  1 ( irrep A1  in C2v )

   1.999999983

 Symmetry  2 ( irrep B1  in C2v )

   1.999969453

 Symmetry  3 ( irrep B2  in C2v )

   1.568373160   0.446489381

 Symmetry  4 ( irrep A2  in C2v )

   1.984692657   1.361959424   0.638515941


 --- MACRO ITERATION  9 ---
 --------------------------

 2-el. integral transformation level 3: Total CPU and WALL times (sec)     102.891     102.962

 Fock matrix screening setting for this macro iteration: 10^( -9)

 Total MCSCF energy       :          -434.068634318108025  (MACRO    9)

 - Nuclear repulsion      :           411.668697987238261
 - Inactive energy        :          -805.121599574893935
 - Active energy          :           -40.615732730452351

 Norm of total gradient   :             0.019308857569
 -    of CI gradient      :             0.011603352910
 -    of orbital gradient :             0.015433540808
      Virial theorem: -V/T =      2.000811
@    MULPOP   C       2.00; C   _1  0.12; C   _2  0.12; C   _1  0.49; C   _2  0.49; C       0.33; N       0.47; O   _1 -0.92; O   _2 -0.92; H   _1 -0.44; 
@             H   _2 -0.44; H   _1 -0.44; H   _2 -0.44; H      -0.43; 

 Residual norm when dim(red L) =  10
 NEO root     CSF        orbital          total
    1     0.04037079     0.08551398     0.09456448 converged

 (NEONEX) NEO auxiliary root no.  1 is converged.

 Residual norm when dim(red L) =  28
 NEO root     CSF        orbital          total
    2     0.00115001     0.00040168     0.00121814 converged

 (NEONEX) NEO vector is converged.

   --- OUTPUT FROM SIRCNO     Keyword = FD+NO 


 Occupations of CAS natural orbitals:

 Symmetry  1 ( irrep A1  in C2v )

   1.999999966

 Symmetry  2 ( irrep B1  in C2v )

   1.999995683

[...]
      ----------------------------------------------------------------
         1    1.33687D+01  2.64D+00  1.31D+01  7.15D+02    1.16800D-01

 ** RSPCTL MICROITERATION NUMBER   11

 *** INFO, negative eigenvalues in reduced matrix. Symmetry  1,  triplet       F Dimension of reduced matrix =    24

 GP * SOLUTION vector at frequency     0.11680 a.u.
 after   12 linear transformations is      1.32578551D+04
 INERTIA (POS,ZER,NEG) of reduced matrix is   23    0    1
 Determinant of reduced matrix is -5.04 * 10 **-22.0

       No.  Residual tot.,    conf., and orb.    Bnorm      Frequency 
      ----------------------------------------------------------------
         1    9.69632D+00  4.30D+00  8.69D+00  7.73D+02    1.16800D-01

 ** RSPCTL MICROITERATION NUMBER   12

 *** INFO, negative eigenvalues in reduced matrix. Symmetry  1,  triplet       F Dimension of reduced matrix =    26

 GP * SOLUTION vector at frequency     0.11680 a.u.
 after   13 linear transformations is      1.33482501D+04
 INERTIA (POS,ZER,NEG) of reduced matrix is   25    0    1
 Determinant of reduced matrix is -1.83 * 10 **-24.0

       No.  Residual tot.,    conf., and orb.    Bnorm      Frequency 
      ----------------------------------------------------------------
         1    1.11299D+01  7.55D+00  8.18D+00  8.19D+02    1.16800D-01

 ** RSPCTL MICROITERATION NUMBER   13

 *** INFO, negative eigenvalues in reduced matrix. Symmetry  1,  triplet       F Dimension of reduced matrix =    28

 GP * SOLUTION vector at frequency     0.11680 a.u.
 after   14 linear transformations is      1.34522014D+04
 INERTIA (POS,ZER,NEG) of reduced matrix is   27    0    1
 Determinant of reduced matrix is -5.96 * 10 **-27.0

       No.  Residual tot.,    conf., and orb.    Bnorm      Frequency 
      ----------------------------------------------------------------
         1    1.72383D+01  1.37D+01  1.04D+01  8.76D+02    1.16800D-01

 ** RSPCTL MICROITERATION NUMBER   14

 *** INFO, negative eigenvalues in reduced matrix. Symmetry  1,  triplet       F Dimension of reduced matrix =    30

 GP * SOLUTION vector at frequency     0.11680 a.u.
 after   15 linear transformations is      1.11784053D+04
 INERTIA (POS,ZER,NEG) of reduced matrix is   28    0    2
 Determinant of reduced matrix is  3.30 * 10 **-28.0

       No.  Residual tot.,    conf., and orb.    Bnorm      Frequency 
      ----------------------------------------------------------------
         1    1.14217D+02  1.48D+01  1.13D+02  1.53D+03    1.16800D-01

 ** RSPCTL MICROITERATION NUMBER   15

 *** INFO, negative eigenvalues in reduced matrix. Symmetry  1,  triplet       F Dimension of reduced matrix =    32

 GP * SOLUTION vector at frequency     0.11680 a.u.
 after   16 linear transformations is      1.28363703D+04
 INERTIA (POS,ZER,NEG) of reduced matrix is   30    0    2
 Determinant of reduced matrix is  4.21 * 10 **-30.0

       No.  Residual tot.,    conf., and orb.    Bnorm      Frequency 
      ----------------------------------------------------------------
         1    1.46740D+01  6.12D+00  1.33D+01  6.16D+02    1.16800D-01

 ** RSPCTL MICROITERATION NUMBER   16

 *** INFO, negative eigenvalues in reduced matrix. Symmetry  1,  triplet       F Dimension of reduced matrix =    34

 GP * SOLUTION vector at frequency     0.11680 a.u.
 after   17 linear transformations is      1.29051468D+04
 INERTIA (POS,ZER,NEG) of reduced matrix is   32    0    2
 Determinant of reduced matrix is  2.69 * 10 **-32.0

       No.  Residual tot.,    conf., and orb.    Bnorm      Frequency 
      ----------------------------------------------------------------
         1    7.39172D+00  6.19D+00  4.04D+00  6.31D+02    1.16800D-01

 ** RSPCTL MICROITERATION NUMBER   17

 *** INFO, negative eigenvalues in reduced matrix. Symmetry  1,  triplet       F Dimension of reduced matrix =    36

 GP * SOLUTION vector at frequency     0.11680 a.u.
 after   18 linear transformations is      1.29850598D+04
 INERTIA (POS,ZER,NEG) of reduced matrix is   34    0    2
 Determinant of reduced matrix is  3.84 * 10 **-33.0

       No.  Residual tot.,    conf., and orb.    Bnorm      Frequency 
      ----------------------------------------------------------------
         1    6.35699D+00  3.01D+00  5.60D+00  6.57D+02    1.16800D-01

 ** RSPCTL MICROITERATION NUMBER   18

 *** INFO, negative eigenvalues in reduced matrix. Symmetry  1,  triplet       F Dimension of reduced matrix =    38

 GP * SOLUTION vector at frequency     0.11680 a.u.
 after   19 linear transformations is      1.30015523D+04
 INERTIA (POS,ZER,NEG) of reduced matrix is   36    0    2
 Determinant of reduced matrix is  3.32 * 10 **-36.0

       No.  Residual tot.,    conf., and orb.    Bnorm      Frequency 
      ----------------------------------------------------------------
         1    3.95982D+00  3.21D+00  2.32D+00  6.63D+02    1.16800D-01

 ** RSPCTL MICROITERATION NUMBER   19

 *** INFO, negative eigenvalues in reduced matrix. Symmetry  1,  triplet       F Dimension of reduced matrix =    40

 GP * SOLUTION vector at frequency     0.11680 a.u.
 after   20 linear transformations is      1.30154635D+04
 INERTIA (POS,ZER,NEG) of reduced matrix is   38    0    2
 Determinant of reduced matrix is  5.15 * 10 **-37.0

       No.  Residual tot.,    conf., and orb.    Bnorm      Frequency 
      ----------------------------------------------------------------
         1    2.61989D+00  6.59D-01  2.54D+00  6.68D+02    1.16800D-01

 ** RSPCTL MICROITERATION NUMBER   20

 *** INFO, negative eigenvalues in reduced matrix. Symmetry  1,  triplet       F Dimension of reduced matrix =    42

 GP * SOLUTION vector at frequency     0.11680 a.u.
 after   21 linear transformations is      1.30199462D+04
 INERTIA (POS,ZER,NEG) of reduced matrix is   40    0    2
 Determinant of reduced matrix is  3.70 * 10 **-40.0

       No.  Residual tot.,    conf., and orb.    Bnorm      Frequency 
      ----------------------------------------------------------------
         1    1.47168D+00  1.04D+00  1.04D+00  6.76D+02    1.16800D-01

 ** RSPCTL MICROITERATION NUMBER   21

 *** INFO, negative eigenvalues in reduced matrix. Symmetry  1,  triplet       F Dimension of reduced matrix =    44

 GP * SOLUTION vector at frequency     0.11680 a.u.
 after   22 linear transformations is      1.30204717D+04
 INERTIA (POS,ZER,NEG) of reduced matrix is   42    0    2
 Determinant of reduced matrix is  2.74 * 10 **-43.0

       No.  Residual tot.,    conf., and orb.    Bnorm      Frequency 
      ----------------------------------------------------------------
         1    1.25130D+00  1.20D+00  3.48D-01  6.79D+02    1.16800D-01

 ** RSPCTL MICROITERATION NUMBER   22

 *** INFO, negative eigenvalues in reduced matrix. Symmetry  1,  triplet       F Dimension of reduced matrix =    46

 GP * SOLUTION vector at frequency     0.11680 a.u.
 after   23 linear transformations is      1.30212678D+04
 INERTIA (POS,ZER,NEG) of reduced matrix is   44    0    2
 Determinant of reduced matrix is  2.34 * 10 **-43.0

       No.  Residual tot.,    conf., and orb.    Bnorm      Frequency 
      ----------------------------------------------------------------
         1    1.05600D+00  7.65D-01  7.28D-01  6.83D+02    1.16800D-01

 ** RSPCTL MICROITERATION NUMBER   23

 *** INFO, negative eigenvalues in reduced matrix. Symmetry  1,  triplet       F Dimension of reduced matrix =    48

 GP * SOLUTION vector at frequency     0.11680 a.u.
 after   24 linear transformations is      1.30220489D+04
 INERTIA (POS,ZER,NEG) of reduced matrix is   46    0    2
 Determinant of reduced matrix is  1.22 * 10 **-43.0

       No.  Residual tot.,    conf., and orb.    Bnorm      Frequency 
      ----------------------------------------------------------------
         1    7.35432D-01  1.95D-02  7.35D-01  6.84D+02    1.16800D-01

 ** RSPCTL MICROITERATION NUMBER   24

 *** INFO, negative eigenvalues in reduced matrix. Symmetry  1,  triplet       F Dimension of reduced matrix =    50

 GP * SOLUTION vector at frequency     0.11680 a.u.
 after   25 linear transformations is      1.30224780D+04
 INERTIA (POS,ZER,NEG) of reduced matrix is   48    0    2
 Determinant of reduced matrix is  4.96 * 10 **-47.0

       No.  Residual tot.,    conf., and orb.    Bnorm      Frequency 
      ----------------------------------------------------------------
         1    3.94797D-01  7.51D-02  3.88D-01  6.91D+02    1.16800D-01

 *** THE REQUESTED    1 SOLUTION VECTORS CONVERGED

 Convergence of RSP solution vectors, threshold = 1.00D-03
 ---------------------------------------------------------------
 (dimension of paired reduced space:   50)
 RSP solution vector no.    1; norm of residual   5.71D-04

 *** RSPCTL MICROITERATIONS CONVERGED
    YDIPLEN     YDIPLEN      freq1     freq2                Norm
 ---------------------------------------------------------------
                          0.058400  0.058400        690.81595466
  Time used in CRVEC2     is       2 hours 55 minutes  5 seconds


 ----- CALCULATING CONTRIBUTIONS TO SECOND HYPERPOLARIZABILITY -----


   Contribution                Term         Accumulated
 ------------------------------------------------------
 Na T[4] Nb Nc Nd213395798.80328295  213395798.80328295
 Na T[3] Nx Nyz -234148152.75872046  -20752353.95543753
 Na X[3] Ny Nz     4538485.02872340  -16213868.92671412
 Nx A[3] Ny Nz     1512828.34290781  -14701040.58380631
 Na X[2] Nyz      -9255845.67383636  -23956886.25764268
 Nx A[2] Nyz      -9968673.22962819  -33925559.48727086

@ Cubic response function value in a.u. for
@ A operator, symmetry, frequency:   ZDIPLEN    1 -0.058400
@ B operator, symmetry, frequency:   ZDIPLEN    1  0.058400
@ C operator, symmetry, frequency:   ZDIPLEN    1 -0.058400
@ D operator, symmetry, frequency:   ZDIPLEN    1  0.058400

@ << A; B, C, D >>  =   -33925559.48727086



   Contribution                Term         Accumulated
 ------------------------------------------------------
 Na T[4] Nb Nc Nd   691266.85971597     691266.85971597
 Na T[3] Nx Nyz    2275789.17476009    2967056.03447606
 Na X[3] Ny Nz      821737.97606310    3788794.01053916
 Nx A[3] Ny Nz      804120.95385963    4592914.96439879
 Na X[2] Nyz       4674016.61466826    9266931.57906705
 Nx A[2] Nyz      -3002673.60040489    6264257.97866216

@ Cubic response function value in a.u. for
@ A operator, symmetry, frequency:   XDIPLEN    2 -0.058400
@ B operator, symmetry, frequency:   XDIPLEN    2  0.058400
@ C operator, symmetry, frequency:   ZDIPLEN    1 -0.058400
@ D operator, symmetry, frequency:   ZDIPLEN    1  0.058400

@ << A; B, C, D >>  =     6264257.97866216



   Contribution                Term         Accumulated
 ------------------------------------------------------
 Na T[4] Nb Nc Nd   -59744.32419278     -59744.32419278
 Na T[3] Nx Nyz      -3949.03524467     -63693.35943746
 Na X[3] Ny Nz      143348.32508631      79654.96564885
 Nx A[3] Ny Nz       86794.09725254     166449.06290139
 Na X[2] Nyz         21051.30163279     187500.36453418
 Nx A[2] Nyz       -299168.37818529    -111668.01365110

@ Cubic response function value in a.u. for
@ A operator, symmetry, frequency:   YDIPLEN    3 -0.058400
@ B operator, symmetry, frequency:   YDIPLEN    3  0.058400
@ C operator, symmetry, frequency:   ZDIPLEN    1 -0.058400
@ D operator, symmetry, frequency:   ZDIPLEN    1  0.058400

@ << A; B, C, D >>  =     -111668.01365110



   Contribution                Term         Accumulated
 ------------------------------------------------------
 Na T[4] Nb Nc Nd   297930.44722262     297930.44722262
 Na T[3] Nx Nyz   -1441058.18123488   -1143127.73401226
 Na X[3] Ny Nz      150906.42853760    -992221.30547465
 Nx A[3] Ny Nz       -7834.33614152   -1000055.64161618
 Na X[2] Nyz       -186421.45113961   -1186477.09275579
 Nx A[2] Nyz         39706.50422068   -1146770.58853511

@ Cubic response function value in a.u. for
@ A operator, symmetry, frequency:   XDIPLEN    2 -0.058400
@ B operator, symmetry, frequency:   ZDIPLEN    1  0.058400
@ C operator, symmetry, frequency:   XDIPLEN    2 -0.058400
@ D operator, symmetry, frequency:   ZDIPLEN    1  0.058400

@ << A; B, C, D >>  =    -1146770.58853511



   Contribution                Term         Accumulated
 ------------------------------------------------------
 Na T[4] Nb Nc Nd   -30117.70921543     -30117.70921543
 Na T[3] Nx Nyz     -50340.96357981     -80458.67279524
 Na X[3] Ny Nz       64839.48290737     -15619.18988787
 Nx A[3] Ny Nz       11844.79957715      -3774.39031072
 Na X[2] Nyz       -143328.43931945    -147102.82963018
 Nx A[2] Nyz       -255263.89047764    -402366.72010782

@ Cubic response function value in a.u. for
@ A operator, symmetry, frequency:   YDIPLEN    3 -0.058400
@ B operator, symmetry, frequency:   ZDIPLEN    1  0.058400
@ C operator, symmetry, frequency:   YDIPLEN    3 -0.058400
@ D operator, symmetry, frequency:   ZDIPLEN    1  0.058400

@ << A; B, C, D >>  =     -402366.72010782



   Contribution                Term         Accumulated
 ------------------------------------------------------
 Na T[4] Nb Nc Nd   378601.98171877     378601.98171877
 Na T[3] Nx Nyz   -1796356.83737644   -1417754.85565767
 Na X[3] Ny Nz     -161736.86134209   -1579491.71699976
 Nx A[3] Ny Nz        4224.19187336   -1575267.52512640
 Na X[2] Nyz        406436.13184279   -1168831.39328362
 Nx A[2] Nyz         24032.73609898   -1144798.65718463

@ Cubic response function value in a.u. for
@ A operator, symmetry, frequency:   ZDIPLEN    1 -0.058400
@ B operator, symmetry, frequency:   XDIPLEN    2  0.058400
@ C operator, symmetry, frequency:   ZDIPLEN    1 -0.058400
@ D operator, symmetry, frequency:   XDIPLEN    2  0.058400

@ << A; B, C, D >>  =    -1144798.65718463



   Contribution                Term         Accumulated
 ------------------------------------------------------
 Na T[4] Nb Nc Nd   217017.93474676     217017.93474676
 Na T[3] Nx Nyz    -349411.17942019    -132393.24467343
 Na X[3] Ny Nz      156320.20036192      23926.95568849
 Nx A[3] Ny Nz       52106.73345397      76033.68914246
 Na X[2] Nyz        -16082.06077028      59951.62837217
 Nx A[2] Nyz        -73642.66806848     -13691.03969631

@ Cubic response function value in a.u. for
@ A operator, symmetry, frequency:   XDIPLEN    2 -0.058400
@ B operator, symmetry, frequency:   XDIPLEN    2  0.058400
@ C operator, symmetry, frequency:   XDIPLEN    2 -0.058400
@ D operator, symmetry, frequency:   XDIPLEN    2  0.058400

@ << A; B, C, D >>  =      -13691.03969631



   Contribution                Term         Accumulated
 ------------------------------------------------------
 Na T[4] Nb Nc Nd    -5683.01419953      -5683.01419953
 Na T[3] Nx Nyz      -1220.68733687      -6903.70153641
 Na X[3] Ny Nz       10848.48776707       3944.78623066
 Nx A[3] Ny Nz        4061.07934795       8005.86557861
 Na X[2] Nyz         -7193.41847390        812.44710471
 Nx A[2] Nyz        -15942.68016612     -15130.23306141

@ Cubic response function value in a.u. for
@ A operator, symmetry, frequency:   YDIPLEN    3 -0.058400
@ B operator, symmetry, frequency:   YDIPLEN    3  0.058400
@ C operator, symmetry, frequency:   XDIPLEN    2 -0.058400
@ D operator, symmetry, frequency:   XDIPLEN    2  0.058400

@ << A; B, C, D >>  =      -15130.23306141



   Contribution                Term         Accumulated
 ------------------------------------------------------
 Na T[4] Nb Nc Nd    -5132.34509560      -5132.34509560
 Na T[3] Nx Nyz      -1341.68805171      -6474.03314731
 Na X[3] Ny Nz        9888.47279362       3414.43964631
 Nx A[3] Ny Nz        3460.18849828       6874.62814459
 Na X[2] Nyz        -12126.52044462      -5251.89230003
 Nx A[2] Nyz        -18338.65037296     -23590.54267299

@ Cubic response function value in a.u. for
@ A operator, symmetry, frequency:   YDIPLEN    3 -0.058400
@ B operator, symmetry, frequency:   XDIPLEN    2  0.058400
@ C operator, symmetry, frequency:   YDIPLEN    3 -0.058400
@ D operator, symmetry, frequency:   XDIPLEN    2  0.058400

@ << A; B, C, D >>  =      -23590.54267299



   Contribution                Term         Accumulated
 ------------------------------------------------------
 Na T[4] Nb Nc Nd     6965.27151055       6965.27151055
 Na T[3] Nx Nyz    -314370.99683428    -307405.72532374
 Na X[3] Ny Nz      -22564.39172526    -329970.11704900
 Nx A[3] Ny Nz        2246.89748356    -327723.21956544
 Na X[2] Nyz        -72615.64042399    -400338.85998942
 Nx A[2] Nyz         -2060.60292124    -402399.46291066

@ Cubic response function value in a.u. for
@ A operator, symmetry, frequency:   ZDIPLEN    1 -0.058400
@ B operator, symmetry, frequency:   YDIPLEN    3  0.058400
@ C operator, symmetry, frequency:   ZDIPLEN    1 -0.058400
@ D operator, symmetry, frequency:   YDIPLEN    3  0.058400

@ << A; B, C, D >>  =     -402399.46291066



   Contribution                Term         Accumulated
 ------------------------------------------------------
 Na T[4] Nb Nc Nd    -1149.91266432      -1149.91266432
 Na T[3] Nx Nyz      -1387.33929596      -2537.25196028
 Na X[3] Ny Nz        1815.61583118       -721.63612910
 Nx A[3] Ny Nz         441.17437665       -280.46175245
 Na X[2] Nyz        -12254.30083527     -12534.76258772
 Nx A[2] Nyz        -11058.74920143     -23593.51178915

@ Cubic response function value in a.u. for
@ A operator, symmetry, frequency:   XDIPLEN    2 -0.058400
@ B operator, symmetry, frequency:   YDIPLEN    3  0.058400
@ C operator, symmetry, frequency:   XDIPLEN    2 -0.058400
@ D operator, symmetry, frequency:   YDIPLEN    3  0.058400

@ << A; B, C, D >>  =      -23593.51178915



   Contribution                Term         Accumulated
 ------------------------------------------------------
 Na T[4] Nb Nc Nd     -742.50836819       -742.50836819
 Na T[3] Nx Nyz       3429.38585422       2686.87748604
 Na X[3] Ny Nz        2280.63237100       4967.50985704
 Nx A[3] Ny Nz         760.21079033       5727.72064737
 Na X[2] Nyz        -14981.09704256      -9253.37639518
 Nx A[2] Nyz        -15049.05578972     -24302.43218490

@ Cubic response function value in a.u. for
@ A operator, symmetry, frequency:   YDIPLEN    3 -0.058400
@ B operator, symmetry, frequency:   YDIPLEN    3  0.058400
@ C operator, symmetry, frequency:   YDIPLEN    3 -0.058400
@ D operator, symmetry, frequency:   YDIPLEN    3  0.058400

@ << A; B, C, D >>  =      -24302.43218490



  Summary of gamma values for a set of frequencies
 -------------------------------------------------

@ B-freq:  0.058400
@ C-freq: -0.058400
@ D-freq:  0.058400

@ gamma(X;X,X,X)      13691.0397
@ gamma(X;X,Y,Y)      15130.2331
@ gamma(X;Y,Y,X)      15130.2331
@ gamma(X;Y,X,Y)      23593.5118
@ gamma(X;X,Z,Z)   -6264257.9787
@ gamma(X;Z,Z,X)   -6264257.9787
@ gamma(X;Z,X,Z)    1146770.5885
@ gamma(Y;Y,X,X)      15130.2331
@ gamma(Y;X,X,Y)      15130.2331
@ gamma(Y;X,Y,X)      23590.5427
@ gamma(Y;Y,Y,Y)      24302.4322
@ gamma(Y;Y,Z,Z)     111668.0137
@ gamma(Y;Z,Z,Y)     111668.0137
@ gamma(Y;Z,Y,Z)     402366.7201
@ gamma(Z;Z,X,X)   -6264257.9787
@ gamma(Z;X,X,Z)   -6264257.9787
@ gamma(Z;X,Z,X)    1144798.6572
@ gamma(Z;Z,Y,Y)     111668.0137
@ gamma(Z;Y,Y,Z)     111668.0137
@ gamma(Z;Y,Z,Y)     402399.4629
@ gamma(Z;Z,Z,Z)   33925559.4873

@ Averaged gamma parallel to the applied field is   5365622.628857

  Total CPU  time used in RESPONSE:   7 hours 55 minutes 53 seconds
  Total wall time used in RESPONSE:   7 hours 56 minutes 16 seconds


                   .-------------------------------------------.
                   | End of Dynamic Property Section (RESPONS) |
                   `-------------------------------------------'

  Total CPU  time used in DALTON:  12 hours 47 minutes 17 seconds
  Total wall time used in DALTON:  12 hours 47 minutes 53 seconds

 
     Date and time (Linux)  : Fri Feb  7 22:49:09 2020
     Host name              : Lab2-333-NPs                            
