

     ************************************************************************
     *************** Dalton - An Electronic Structure Program ***************
     ************************************************************************

    This is output from DALTON release Dalton2018.1 (2019)
         ( Web site: http://daltonprogram.org )

   ----------------------------------------------------------------------------

    NOTE:
     
    Dalton is an experimental code for the evaluation of molecular
    properties using (MC)SCF, DFT, CI, and CC wave functions.
    The authors accept no responsibility for the performance of
    the code or for the correctness of the results.
     
    The code (in whole or part) is provided under a licence and
    is not to be reproduced for further distribution without
    the written permission of the authors or their representatives.
     
    See the home page "http://daltonprogram.org" for further information.
     
    If results obtained with this code are published,
    the appropriate citations would be both of:
     
       K. Aidas, C. Angeli, K. L. Bak, V. Bakken, R. Bast,
       L. Boman, O. Christiansen, R. Cimiraglia, S. Coriani,
       P. Dahle, E. K. Dalskov, U. Ekstroem,
       T. Enevoldsen, J. J. Eriksen, P. Ettenhuber, B. Fernandez,
       L. Ferrighi, H. Fliegl, L. Frediani, K. Hald, A. Halkier,
       C. Haettig, H. Heiberg, T. Helgaker, A. C. Hennum,
       H. Hettema, E. Hjertenaes, S. Hoest, I.-M. Hoeyvik,
       M. F. Iozzi, B. Jansik, H. J. Aa. Jensen, D. Jonsson,
       P. Joergensen, J. Kauczor, S. Kirpekar,
       T. Kjaergaard, W. Klopper, S. Knecht, R. Kobayashi, H. Koch,
       J. Kongsted, A. Krapp, K. Kristensen, A. Ligabue,
       O. B. Lutnaes, J. I. Melo, K. V. Mikkelsen, R. H. Myhre,
       C. Neiss, C. B. Nielsen, P. Norman, J. Olsen,
       J. M. H. Olsen, A. Osted, M. J. Packer, F. Pawlowski,
       T. B. Pedersen, P. F. Provasi, S. Reine, Z. Rinkevicius,
       T. A. Ruden, K. Ruud, V. Rybkin, P. Salek, C. C. M. Samson,
       A. Sanchez de Meras, T. Saue, S. P. A. Sauer,
       B. Schimmelpfennig, K. Sneskov, A. H. Steindal,
       K. O. Sylvester-Hvid, P. R. Taylor, A. M. Teale,
       E. I. Tellgren, D. P. Tew, A. J. Thorvaldsen, L. Thoegersen,
       O. Vahtras, M. A. Watson, D. J. D. Wilson, M. Ziolkowski
       and H. Agren,
       "The Dalton quantum chemistry program system",
       WIREs Comput. Mol. Sci. 2014, 4:269–284 (doi: 10.1002/wcms.1172)
     
    and
     
       Dalton, a molecular electronic structure program,
       Release Dalton2018.1 (2019), see http://daltonprogram.org
   ----------------------------------------------------------------------------

    Authors in alphabetical order (major contribution(s) in parenthesis):

  Kestutis Aidas,           Vilnius University,           Lithuania   (QM/MM)
  Celestino Angeli,         University of Ferrara,        Italy       (NEVPT2)
  Keld L. Bak,              UNI-C,                        Denmark     (AOSOPPA, non-adiabatic coupling, magnetic properties)
  Vebjoern Bakken,          University of Oslo,           Norway      (DALTON; geometry optimizer, symmetry detection)
  Radovan Bast,             UiT The Arctic U. of Norway,  Norway      (DALTON installation and execution frameworks)
  Pablo Baudin,             University of Valencia,       Spain       (Cholesky excitation energies)
  Linus Boman,              NTNU,                         Norway      (Cholesky decomposition and subsystems)
  Ove Christiansen,         Aarhus University,            Denmark     (CC module)
  Renzo Cimiraglia,         University of Ferrara,        Italy       (NEVPT2)
  Sonia Coriani,            Technical Univ. of Denmark,   Denmark     (CC module, MCD in RESPONS)
  Janusz Cukras,            University of Trieste,        Italy       (MChD in RESPONS)
  Paal Dahle,               University of Oslo,           Norway      (Parallelization)
  Erik K. Dalskov,          UNI-C,                        Denmark     (SOPPA)
  Thomas Enevoldsen,        Univ. of Southern Denmark,    Denmark     (SOPPA)
  Janus J. Eriksen,         Aarhus University,            Denmark     (Polarizable embedding model, TDA)
  Rasmus Faber,             University of Copenhagen,     Denmark     (Vib.avg. NMR with SOPPA, parallel AO-SOPPA)
  Tobias Fahleson,          KTH Stockholm,                Sweden      (Damped cubic response)
  Berta Fernandez,          U. of Santiago de Compostela, Spain       (doublet spin, ESR in RESPONS)
  Lara Ferrighi,            Aarhus University,            Denmark     (PCM Cubic response)
  Heike Fliegl,             University of Oslo,           Norway      (CCSD(R12))
  Luca Frediani,            UiT The Arctic U. of Norway,  Norway      (PCM)
  Bin Gao,                  UiT The Arctic U. of Norway,  Norway      (Gen1Int library)
  Christof Haettig,         Ruhr-University Bochum,       Germany     (CC module)
  Kasper Hald,              Aarhus University,            Denmark     (CC module)
  Asger Halkier,            Aarhus University,            Denmark     (CC module)
  Frederik Beyer Hansen,    University of Copenhagen,     Denmark     (Parallel AO-SOPPA)
  Erik D. Hedegaard,        Univ. of Southern Denmark,    Denmark     (Polarizable embedding model, QM/MM)
  Hanne Heiberg,            University of Oslo,           Norway      (geometry analysis, selected one-electron integrals)
  Trygve Helgaker,          University of Oslo,           Norway      (DALTON; ABACUS, ERI, DFT modules, London, and much more)
  Alf Christian Hennum,     University of Oslo,           Norway      (Parity violation)
  Hinne Hettema,            University of Auckland,       New Zealand (quadratic response in RESPONS; SIRIUS supersymmetry)
  Eirik Hjertenaes,         NTNU,                         Norway      (Cholesky decomposition)
  Pi A. B. Haase,           University of Copenhagen,     Denmark     (Triplet AO-SOPPA)
  Maria Francesca Iozzi,    University of Oslo,           Norway      (RPA)
  Christoph Jacob           TU Braunschweig               Germany     (Frozen density embedding model)
  Brano Jansik              Technical Univ. of Ostrava    Czech Rep.  (DFT cubic response)
  Hans Joergen Aa. Jensen,  Univ. of Southern Denmark,    Denmark     (DALTON; SIRIUS, RESPONS, ABACUS modules, London, and much more)
  Dan Jonsson,              UiT The Arctic U. of Norway,  Norway      (cubic response in RESPONS module)
  Poul Joergensen,          Aarhus University,            Denmark     (RESPONS, ABACUS, and CC modules)
  Maciej Kaminski,          University of Warsaw,         Poland      (CPPh in RESPONS)
  Joanna Kauczor,           Linkoeping University,        Sweden      (Complex polarization propagator (CPP) module)
  Sheela Kirpekar,          Univ. of Southern Denmark,    Denmark     (Mass-velocity & Darwin integrals)
  Wim Klopper,              KIT Karlsruhe,                Germany     (R12 code in CC, SIRIUS, and ABACUS modules)
  Stefan Knecht,            ETH Zurich,                   Switzerland (Parallel CI and MCSCF)
  Rika Kobayashi,           Australian National Univ.,    Australia   (DIIS in CC, London in MCSCF)
  Henrik Koch,              NTNU,                         Norway      (CC module, Cholesky decomposition)
  Jacob Kongsted,           Univ. of Southern Denmark,    Denmark     (Polarizable embedding model, QM/MM)
  Andrea Ligabue,           University of Modena,         Italy       (CTOCD, AOSOPPA)
  Nanna H. List             Univ. of Southern Denmark,    Denmark     (Polarizable embedding model)
  Ola B. Lutnaes,           University of Oslo,           Norway      (DFT Hessian)
  Juan I. Melo,             University of Buenos Aires,   Argentina   (LRESC, Relativistic Effects on NMR Shieldings)
  Kurt V. Mikkelsen,        University of Copenhagen,     Denmark     (MC-SCRF and QM/MM)
  Rolf H. Myhre,            NTNU,                         Norway      (Subsystems and CC3)
  Christian Neiss,          Univ. Erlangen-Nuernberg,     Germany     (CCSD(R12))
  Christian B. Nielsen,     University of Copenhagen,     Denmark     (QM/MM)
  Patrick Norman,           KTH Stockholm,                Sweden      (Cubic response and complex frequency response in RESPONS)
  Jeppe Olsen,              Aarhus University,            Denmark     (SIRIUS CI/density modules)
  Jogvan Magnus H. Olsen,   Univ. of Southern Denmark,    Denmark     (Polarizable embedding model, QM/MM)
  Anders Osted,             Copenhagen University,        Denmark     (QM/MM)
  Martin J. Packer,         University of Sheffield,      UK          (SOPPA)
  Filip Pawlowski,          Kazimierz Wielki University,  Poland      (CC3)
  Morten N. Pedersen,       Univ. of Southern Denmark,    Denmark     (Polarizable embedding model)
  Thomas B. Pedersen,       University of Oslo,           Norway      (Cholesky decomposition)
  Patricio F. Provasi,      University of Northeastern,   Argentina   (Analysis of coupling constants in localized orbitals)
  Zilvinas Rinkevicius,     KTH Stockholm,                Sweden      (open-shell DFT, ESR)
  Elias Rudberg,            KTH Stockholm,                Sweden      (DFT grid and basis info)
  Torgeir A. Ruden,         University of Oslo,           Norway      (Numerical derivatives in ABACUS)
  Kenneth Ruud,             UiT The Arctic U. of Norway,  Norway      (DALTON; ABACUS magnetic properties and much more)
  Pawel Salek,              KTH Stockholm,                Sweden      (DALTON; DFT code)
  Claire C. M. Samson       University of Karlsruhe       Germany     (Boys localization, r12 integrals in ERI)
  Alfredo Sanchez de Meras, University of Valencia,       Spain       (CC module, Cholesky decomposition)
  Trond Saue,               Paul Sabatier University,     France      (direct Fock matrix construction)
  Stephan P. A. Sauer,      University of Copenhagen,     Denmark     (SOPPA(CCSD), SOPPA prop., AOSOPPA, vibrational g-factors)
  Andre S. P. Gomes,        CNRS/Universite de Lille,     France      (Frozen density embedding model)
  Bernd Schimmelpfennig,    Forschungszentrum Karlsruhe,  Germany     (AMFI module)
  Kristian Sneskov,         Aarhus University,            Denmark     (Polarizable embedding model, QM/MM)
  Arnfinn H. Steindal,      UiT The Arctic U. of Norway,  Norway      (parallel QM/MM, Polarizable embedding model)
  Casper Steinmann,         Univ. of Southern Denmark,    Denmark     (QFIT, Polarizable embedding model)
  K. O. Sylvester-Hvid,     University of Copenhagen,     Denmark     (MC-SCRF)
  Peter R. Taylor,          VLSCI/Univ. of Melbourne,     Australia   (Symmetry handling ABACUS, integral transformation)
  Andrew M. Teale,          University of Nottingham,     England     (DFT-AC, DFT-D)
  David P. Tew,             University of Bristol,        England     (CCSD(R12))
  Olav Vahtras,             KTH Stockholm,                Sweden      (triplet response, spin-orbit, ESR, TDDFT, open-shell DFT)
  Lucas Visscher,           Vrije Universiteit Amsterdam, Netherlands (Frozen density embedding model)
  David J. Wilson,          La Trobe University,          Australia   (DFT Hessian and DFT magnetizabilities)
  Hans Agren,               KTH Stockholm,                Sweden      (SIRIUS module, RESPONS, MC-SCRF solvation model)
 --------------------------------------------------------------------------------

     Date and time (Linux)  : Tue Feb  4 02:23:42 2020
     Host name              : Lab2-333-NPs                            

 * Work memory size             :  1024000000 =  7.629 gigabytes.

 * Directories for basis set searches:
   1) /home/lab333/dalton/build_2018_atlas
   2) /home/lab333/dalton/build_2018_atlas/basis


Compilation information
-----------------------

 Who compiled             | lab333
 Host                     | Lab2-333-NPs
 System                   | Linux-4.4.0-43-Microsoft
 CMake generator          | Unix Makefiles
 Processor                | x86_64
 64-bit integers          | OFF
 MPI                      | OFF
 Fortran compiler         | /usr/bin/gfortran
 Fortran compiler version | GNU Fortran (Ubuntu 7.3.0-27ubuntu1~18.04) 7.3.0
 C compiler               | /usr/bin/gcc
 C compiler version       | gcc (Ubuntu 7.3.0-27ubuntu1~18.04) 7.3.0
 C++ compiler             | /usr/bin/g++
 C++ compiler version     | g++ (Ubuntu 7.3.0-27ubuntu1~18.04) 7.3.0
 BLAS                     | /usr/lib/x86_64-linux-gnu/libf77blas.so;/usr/lib/x
                          | 86_64-linux-gnu/libcblas.so;/usr/lib/x86_64-linux-
                          | gnu/libatlas.so
 LAPACK                   | /usr/lib/x86_64-linux-gnu/libatlas.so;/usr/lib/x86
                          | _64-linux-gnu/atlas/liblapack.so
 Static linking           | OFF
 Last Git revision        | da625bf48c74028e805616daee31bc5d76b3a20d
 Git branch               | (HEAD detached at Dalton2018.1)
 Configuration time       | 2019-01-18 10:20:51.437510


   Content of the .dal input file
 ----------------------------------

**DALTON INPUT
.RUN RESPONSE
.DIRECT
**WAVE FUNCTIONS
.HF
.MP2
.MCSCF
*CONFIGURATION INPUT
.SPIN MULTIPLICITY
1
.SYMMETRY
1
.INACTIVE ORBITALS
15 10 2 0
.CAS SPACE
1 1 2 3
.ELECTRONS
10
*ORBITAL INPUT
.MOSTART
.HUCKEL
*OPTIMIZATION
.DETERMINANTS
.STATE
2
*CI VECTOR
.PLUS COMBINATIONS
**RESPONSE
*CUBIC
.DIPLEN
.BFREQ
1
0.0584
.CFREQ
1
-0.0584
.DFREQ
1
0.0584
**END OF DALTON INPUT


   Content of the .mol file
 ----------------------------

BASIS
aug-cc-pCVDZ
 nitrobenzene
 Generated by the Dalton Input File Plugin for Avogadro
Atomtypes=4 Angstrom Generators=2 X Y
Charge=6.0 Atoms=4
C        0.0000000000            0.0000000000           -0.0265759623
C       -1.2190534920            0.0000000000           -0.6979856948
C       -1.2105095870            0.0000000000           -2.0897394457
C        0.0000000000            0.0000000000           -2.7841484631
Charge=7.0 Atoms=1
N        0.0000000000            0.0000000000            1.4549291696
Charge=8.0 Atoms=1
O       1.0508030234638337            0.0            2.0841015225885364
Charge=1.0 Atoms=3
H       -2.1410602955            0.0000000000           -0.1327964319
H       -2.1492827751            0.0000000000           -2.6311811056
H        0.0000000000            0.0000000000           -3.8683953478


       *******************************************************************
       *********** Output from DALTON general input processing ***********
       *******************************************************************

 --------------------------------------------------------------------------------
   Overall default print level:    0
   Print level for DALTON.STAT:    1

    AO-direct calculation (in sections where implemented)
    HERMIT 1- and 2-electron integral sections will be executed
    "Old" integral transformation used (limited to max 255 basis functions)
    Wave function sections will be executed (SIRIUS module)
    Dynamic molecular response properties section will be executed (RESPONSE module)
 --------------------------------------------------------------------------------


   ****************************************************************************
   *************** Output of molecule and basis set information ***************
   ****************************************************************************


    The two title cards from your ".mol" input:
    ------------------------------------------------------------------------
 1:  nitrobenzene                                                           
 2:  Generated by the Dalton Input File Plugin for Avogadro                 
    ------------------------------------------------------------------------

  Coordinates are entered in Angstrom and converted to atomic units.
          - Conversion factor : 1 bohr = 0.52917721 A

  Atomic type no.    1
  --------------------
  Nuclear charge:   6.00000
  Number of symmetry independent centers:    4
  Number of basis sets to read;    2
  Basis set file used for this atomic type with Z =   6 :
     "/home/lab333/dalton/build_2018_atlas/basis/aug-cc-pCVDZ"

  Atomic type no.    2
  --------------------
  Nuclear charge:   7.00000
  Number of symmetry independent centers:    1
  Number of basis sets to read;    2
  Basis set file used for this atomic type with Z =   7 :
     "/home/lab333/dalton/build_2018_atlas/basis/aug-cc-pCVDZ"

  Atomic type no.    3
  --------------------
  Nuclear charge:   8.00000
  Number of symmetry independent centers:    1
  Number of basis sets to read;    2
  Basis set file used for this atomic type with Z =   8 :
     "/home/lab333/dalton/build_2018_atlas/basis/aug-cc-pCVDZ"

  Atomic type no.    4
  --------------------
  Nuclear charge:   1.00000
  Number of symmetry independent centers:    3
  Number of basis sets to read;    2
  Basis set file used for this atomic type with Z =   1 :
     "/home/lab333/dalton/build_2018_atlas/basis/aug-cc-pCVDZ"


                         SYMGRP: Point group information
                         -------------------------------

@    Point group: C2v

@  * The irrep name for each symmetry:    1: A1     2: B1     3: B2     4: A2 

   * The point group was generated by:

      Reflection in the yz-plane
      Reflection in the xz-plane

   * Group multiplication table

        |  E   C2z  Oxz  Oyz
   -----+--------------------
     E  |  E   C2z  Oxz  Oyz
    C2z | C2z   E   Oyz  Oxz
    Oxz | Oxz  Oyz   E   C2z
    Oyz | Oyz  Oxz  C2z   E 

   * Character table

        |  E   C2z  Oxz  Oyz
   -----+--------------------
    A1  |   1    1    1    1
    B1  |   1   -1    1   -1
    B2  |   1   -1   -1    1
    A2  |   1    1   -1   -1

   * Direct product table

        | A1   B1   B2   A2 
   -----+--------------------
    A1  | A1   B1   B2   A2 
    B1  | B1   A1   A2   B2 
    B2  | B2   A2   A1   B1 
    A2  | A2   B2   B1   A1 


                                 Isotopic Masses
                                 ---------------

                           C          12.000000
                           C   _1     12.000000
                           C   _2     12.000000
                           C   _1     12.000000
                           C   _2     12.000000
                           C          12.000000
                           N          14.003074
                           O   _1     15.994915
                           O   _2     15.994915
                           H   _1      1.007825
                           H   _2      1.007825
                           H   _1      1.007825
                           H   _2      1.007825
                           H           1.007825

                       Total mass:   123.032029 amu
                       Natural abundance:  92.716 %

 Center-of-mass coordinates (a.u.):    0.000000    0.000000   -0.354200


  Atoms and basis sets
  --------------------

  Number of atom types :    4
  Total number of atoms:   14

  Basis set used is "aug-cc-pCVDZ" from the basis set library.

  label    atoms   charge   prim   cont     basis
  ----------------------------------------------------------------------
  C           6    6.0000    39    27      [11s6p2d|5s4p2d]                                   
  N           1    7.0000    39    27      [11s6p2d|5s4p2d]                                   
  O           2    8.0000    39    27      [11s6p2d|5s4p2d]                                   
  H           5    1.0000    11     9      [5s2p|3s2p]                                        
  ----------------------------------------------------------------------
  total:     14   64.0000   406   288
  ----------------------------------------------------------------------
  Spherical harmonic basis used.

  Threshold for neglecting AO integrals:  1.00D-12


  Symmetry Coordinates
  --------------------

  Number of coordinates in each symmetry:    14   14    9    5


   Interatomic separations (in Angstrom):
   --------------------------------------

            C           C   _1      C   _2      C   _1      C   _2      C     
            ------      ------      ------      ------      ------      ------
 C     :    0.000000
 C   _1:    1.391719    0.000000
 C   _2:    1.391719    2.438107    0.000000
 C   _1:    2.392065    1.391780    2.799956    0.000000
 C   _2:    2.392065    2.799956    1.391780    2.421019    0.000000
 C     :    2.757573    2.416230    2.416230    1.395542    1.395542    0.000000
 N     :    1.481505    2.474093    2.474093    3.745665    3.745665    4.239078
 O   _1:    2.357784    3.590579    2.787170    4.747050    4.176895    4.980366
 O   _2:    2.357784    2.787170    3.590579    4.176895    4.747050    4.980366
 H   _1:    2.143694    1.081451    3.407316    2.166922    3.881063    3.407904
 H   _2:    2.143694    3.407316    1.081451    3.881063    2.166922    3.407904
 H   _1:    3.376890    2.145360    3.883675    1.083722    3.403140    2.154719
 H   _2:    3.376890    3.883675    2.145360    3.403140    1.083722    2.154719
 H     :    3.841819    3.396703    3.396703    2.151500    2.151500    1.084247

            N           O   _1      O   _2      H   _1      H   _2      H   _1
            ------      ------      ------      ------      ------      ------
 N     :    0.000000
 O   _1:    1.224763    0.000000
 O   _2:    1.224763    2.101606    0.000000
 H   _1:    2.665523    3.886210    2.470485    0.000000
 H   _2:    2.665523    2.470485    3.886210    4.282121    0.000000
 H   _1:    4.616894    5.698635    4.841544    2.498398    4.964773    0.000000
 H   _2:    4.616894    4.841544    5.698635    4.964773    2.498398    4.298566
 H     :    5.323325    6.044535    6.044535    4.305675    4.305675    2.479943

            H   _2      H     
            ------      ------
 H   _2:    0.000000
 H     :    2.479943    0.000000


  Max    interatomic separation is    6.0445 Angstrom (   11.4225 Bohr)
  between atoms   14 and    8, "H     " and "O   _1".

  Min HX interatomic separation is    1.0815 Angstrom (    2.0436 Bohr)

  Min YX interatomic separation is    1.2248 Angstrom (    2.3145 Bohr)


  Bond distances (Angstrom):
  --------------------------

                  atom 1     atom 2       distance
                  ------     ------       --------
  bond distance:  C   _1     C            1.391719
  bond distance:  C   _2     C            1.391719
  bond distance:  C   _1     C   _1       1.391780
  bond distance:  C   _2     C   _2       1.391780
  bond distance:  C          C   _1       1.395542
  bond distance:  C          C   _2       1.395542
  bond distance:  N          C            1.481505
  bond distance:  O   _1     N            1.224763
  bond distance:  O   _2     N            1.224763
  bond distance:  H   _1     C   _1       1.081451
  bond distance:  H   _2     C   _2       1.081451
  bond distance:  H   _1     C   _1       1.083722
  bond distance:  H   _2     C   _2       1.083722
  bond distance:  H          C            1.084247


  Bond angles (degrees):
  ----------------------

                  atom 1     atom 2     atom 3         angle
                  ------     ------     ------         -----
  bond angle:     C   _1     C          C   _2       122.311
  bond angle:     C   _1     C          N            118.844
  bond angle:     C   _2     C          N            118.844
  bond angle:     C          C   _1     C   _1       118.493
  bond angle:     C          C   _1     H   _1       119.647
  bond angle:     C   _1     C   _1     H   _1       121.860
  bond angle:     C          C   _2     C   _2       118.493
  bond angle:     C          C   _2     H   _2       119.647
  bond angle:     C   _2     C   _2     H   _2       121.860
  bond angle:     C   _1     C   _1     C            120.192
  bond angle:     C   _1     C   _1     H   _1       119.623
  bond angle:     C          C   _1     H   _1       120.185
  bond angle:     C   _2     C   _2     C            120.192
  bond angle:     C   _2     C   _2     H   _2       119.623
  bond angle:     C          C   _2     H   _2       120.185
  bond angle:     C   _1     C          C   _2       120.319
  bond angle:     C   _1     C          H            119.841
  bond angle:     C   _2     C          H            119.841
  bond angle:     C          N          O   _1       120.911
  bond angle:     C          N          O   _2       120.911
  bond angle:     O   _1     N          O   _2       118.178




 Principal moments of inertia (u*A**2) and principal axes
 --------------------------------------------------------

   IA     124.708098          0.000000    0.000000    1.000000
   IB     402.865458          1.000000    0.000000    0.000000
   IC     527.573556          0.000000    1.000000    0.000000


 Rotational constants
 --------------------

@    The molecule is planar.

               A                   B                   C

           4052.4955           1254.4610            957.9309 MHz
            0.135177            0.041844            0.031953 cm-1


@  Nuclear repulsion energy :  411.248313587293 Hartree


  Symmetry Orbitals
  -----------------

  Number of orbitals in each symmetry:         115   91   48   34


  Symmetry  A1 ( 1)

    1     C        1s         1
    2     C        1s         2
    3     C        1s         3
    4     C        1s         4
    5     C        1s         5
    6     C        2pz        8
    7     C        2pz       11
    8     C        2pz       14
    9     C        2pz       17
   10     C        3d0       20
   11     C        3d2+      22
   12     C        3d0       25
   13     C        3d2+      27
   14     C        1s        28 +   29
   15     C        1s        30 +   31
   16     C        1s        32 +   33
   17     C        1s        34 +   35
   18     C        1s        36 +   37
   19     C        2px       38 -   39
   20     C        2pz       42 +   43
   21     C        2px       44 -   45
   22     C        2pz       48 +   49
   23     C        2px       50 -   51
   24     C        2pz       54 +   55
   25     C        2px       56 -   57
   26     C        2pz       60 +   61
   27     C        3d0       66 +   67
   28     C        3d1+      68 -   69
   29     C        3d2+      70 +   71
   30     C        3d0       76 +   77
   31     C        3d1+      78 -   79
   32     C        3d2+      80 +   81
   33     C        1s        82 +   83
   34     C        1s        84 +   85
   35     C        1s        86 +   87
   36     C        1s        88 +   89
   37     C        1s        90 +   91
   38     C        2px       92 -   93
   39     C        2pz       96 +   97
   40     C        2px       98 -   99
   41     C        2pz      102 +  103
   42     C        2px      104 -  105
   43     C        2pz      108 +  109
   44     C        2px      110 -  111
   45     C        2pz      114 +  115
   46     C        3d0      120 +  121
   47     C        3d1+     122 -  123
   48     C        3d2+     124 +  125
   49     C        3d0      130 +  131
   50     C        3d1+     132 -  133
   51     C        3d2+     134 +  135
   52     C        1s       136
   53     C        1s       137
   54     C        1s       138
   55     C        1s       139
   56     C        1s       140
   57     C        2pz      143
   58     C        2pz      146
   59     C        2pz      149
   60     C        2pz      152
   61     C        3d0      155
   62     C        3d2+     157
   63     C        3d0      160
   64     C        3d2+     162
   65     N        1s       163
   66     N        1s       164
   67     N        1s       165
   68     N        1s       166
   69     N        1s       167
   70     N        2pz      170
   71     N        2pz      173
   72     N        2pz      176
   73     N        2pz      179
   74     N        3d0      182
   75     N        3d2+     184
   76     N        3d0      187
   77     N        3d2+     189
   78     O        1s       190 +  191
   79     O        1s       192 +  193
   80     O        1s       194 +  195
   81     O        1s       196 +  197
   82     O        1s       198 +  199
   83     O        2px      200 -  201
   84     O        2pz      204 +  205
   85     O        2px      206 -  207
   86     O        2pz      210 +  211
   87     O        2px      212 -  213
   88     O        2pz      216 +  217
   89     O        2px      218 -  219
   90     O        2pz      222 +  223
   91     O        3d0      228 +  229
   92     O        3d1+     230 -  231
   93     O        3d2+     232 +  233
   94     O        3d0      238 +  239
   95     O        3d1+     240 -  241
   96     O        3d2+     242 +  243
   97     H        1s       244 +  245
   98     H        1s       246 +  247
   99     H        1s       248 +  249
  100     H        2px      250 -  251
  101     H        2pz      254 +  255
  102     H        2px      256 -  257
  103     H        2pz      260 +  261
  104     H        1s       262 +  263
  105     H        1s       264 +  265
  106     H        1s       266 +  267
  107     H        2px      268 -  269
  108     H        2pz      272 +  273
  109     H        2px      274 -  275
  110     H        2pz      278 +  279
  111     H        1s       280
  112     H        1s       281
  113     H        1s       282
  114     H        2pz      285
  115     H        2pz      288


  Symmetry  B1 ( 2)

  116     C        2px        6
  117     C        2px        9
  118     C        2px       12
  119     C        2px       15
  120     C        3d1+      21
  121     C        3d1+      26
  122     C        1s        28 -   29
  123     C        1s        30 -   31
  124     C        1s        32 -   33
  125     C        1s        34 -   35
  126     C        1s        36 -   37
  127     C        2px       38 +   39
  128     C        2pz       42 -   43
  129     C        2px       44 +   45
  130     C        2pz       48 -   49
  131     C        2px       50 +   51
  132     C        2pz       54 -   55
  133     C        2px       56 +   57
  134     C        2pz       60 -   61
  135     C        3d0       66 -   67
  136     C        3d1+      68 +   69
  137     C        3d2+      70 -   71
  138     C        3d0       76 -   77
  139     C        3d1+      78 +   79
  140     C        3d2+      80 -   81
  141     C        1s        82 -   83
  142     C        1s        84 -   85
  143     C        1s        86 -   87
  144     C        1s        88 -   89
  145     C        1s        90 -   91
  146     C        2px       92 +   93
  147     C        2pz       96 -   97
  148     C        2px       98 +   99
  149     C        2pz      102 -  103
  150     C        2px      104 +  105
  151     C        2pz      108 -  109
  152     C        2px      110 +  111
  153     C        2pz      114 -  115
  154     C        3d0      120 -  121
  155     C        3d1+     122 +  123
  156     C        3d2+     124 -  125
  157     C        3d0      130 -  131
  158     C        3d1+     132 +  133
  159     C        3d2+     134 -  135
  160     C        2px      141
  161     C        2px      144
  162     C        2px      147
  163     C        2px      150
  164     C        3d1+     156
  165     C        3d1+     161
  166     N        2px      168
  167     N        2px      171
  168     N        2px      174
  169     N        2px      177
  170     N        3d1+     183
  171     N        3d1+     188
  172     O        1s       190 -  191
  173     O        1s       192 -  193
  174     O        1s       194 -  195
  175     O        1s       196 -  197
  176     O        1s       198 -  199
  177     O        2px      200 +  201
  178     O        2pz      204 -  205
  179     O        2px      206 +  207
  180     O        2pz      210 -  211
  181     O        2px      212 +  213
  182     O        2pz      216 -  217
  183     O        2px      218 +  219
  184     O        2pz      222 -  223
  185     O        3d0      228 -  229
  186     O        3d1+     230 +  231
  187     O        3d2+     232 -  233
  188     O        3d0      238 -  239
  189     O        3d1+     240 +  241
  190     O        3d2+     242 -  243
  191     H        1s       244 -  245
  192     H        1s       246 -  247
  193     H        1s       248 -  249
  194     H        2px      250 +  251
  195     H        2pz      254 -  255
  196     H        2px      256 +  257
  197     H        2pz      260 -  261
  198     H        1s       262 -  263
  199     H        1s       264 -  265
  200     H        1s       266 -  267
  201     H        2px      268 +  269
  202     H        2pz      272 -  273
  203     H        2px      274 +  275
  204     H        2pz      278 -  279
  205     H        2px      283
  206     H        2px      286


  Symmetry  B2 ( 3)

  207     C        2py        7
  208     C        2py       10
  209     C        2py       13
  210     C        2py       16
  211     C        3d1-      19
  212     C        3d1-      24
  213     C        2py       40 +   41
  214     C        2py       46 +   47
  215     C        2py       52 +   53
  216     C        2py       58 +   59
  217     C        3d2-      62 -   63
  218     C        3d1-      64 +   65
  219     C        3d2-      72 -   73
  220     C        3d1-      74 +   75
  221     C        2py       94 +   95
  222     C        2py      100 +  101
  223     C        2py      106 +  107
  224     C        2py      112 +  113
  225     C        3d2-     116 -  117
  226     C        3d1-     118 +  119
  227     C        3d2-     126 -  127
  228     C        3d1-     128 +  129
  229     C        2py      142
  230     C        2py      145
  231     C        2py      148
  232     C        2py      151
  233     C        3d1-     154
  234     C        3d1-     159
  235     N        2py      169
  236     N        2py      172
  237     N        2py      175
  238     N        2py      178
  239     N        3d1-     181
  240     N        3d1-     186
  241     O        2py      202 +  203
  242     O        2py      208 +  209
  243     O        2py      214 +  215
  244     O        2py      220 +  221
  245     O        3d2-     224 -  225
  246     O        3d1-     226 +  227
  247     O        3d2-     234 -  235
  248     O        3d1-     236 +  237
  249     H        2py      252 +  253
  250     H        2py      258 +  259
  251     H        2py      270 +  271
  252     H        2py      276 +  277
  253     H        2py      284
  254     H        2py      287


  Symmetry  A2 ( 4)

  255     C        3d2-      18
  256     C        3d2-      23
  257     C        2py       40 -   41
  258     C        2py       46 -   47
  259     C        2py       52 -   53
  260     C        2py       58 -   59
  261     C        3d2-      62 +   63
  262     C        3d1-      64 -   65
  263     C        3d2-      72 +   73
  264     C        3d1-      74 -   75
  265     C        2py       94 -   95
  266     C        2py      100 -  101
  267     C        2py      106 -  107
  268     C        2py      112 -  113
  269     C        3d2-     116 +  117
  270     C        3d1-     118 -  119
  271     C        3d2-     126 +  127
  272     C        3d1-     128 -  129
  273     C        3d2-     153
  274     C        3d2-     158
  275     N        3d2-     180
  276     N        3d2-     185
  277     O        2py      202 -  203
  278     O        2py      208 -  209
  279     O        2py      214 -  215
  280     O        2py      220 -  221
  281     O        3d2-     224 +  225
  282     O        3d1-     226 -  227
  283     O        3d2-     234 +  235
  284     O        3d1-     236 -  237
  285     H        2py      252 -  253
  286     H        2py      258 -  259
  287     H        2py      270 -  271
  288     H        2py      276 -  277

  Symmetries of electric field:  B1 (2)  B2 (3)  A1 (1)

  Symmetries of magnetic field:  B2 (3)  B1 (2)  A2 (4)


                     .---------------------------------------.
                     | Starting in Integral Section (HERMIT) |
                     `---------------------------------------'



 ***************************************************************************************
 ****************** Output from **INTEGRALS input processing (HERMIT) ******************
 ***************************************************************************************


 - Using defaults, no **INTEGRALS input found

 Default print level:        1

 Calculation of one-electron Hamiltonian integrals.

 Center of mass  (bohr):      0.000000000000      0.000000000000     -0.354199752569
 Operator center (bohr):      0.000000000000      0.000000000000      0.000000000000
 Gauge origin    (bohr):      0.000000000000      0.000000000000      0.000000000000
 Dipole origin   (bohr):      0.000000000000      0.000000000000      0.000000000000


     ************************************************************************
     ************************** Output from HERINT **************************
     ************************************************************************



                      Nuclear contribution to dipole moments
                      --------------------------------------

                 au               Debye          C m (/(10**-30)

      z    -30.58194832       -77.73155422      -259.28455553


  Time used in GABGEN     is       0.11 seconds
  Total CPU  time used in HERMIT:   0.41 seconds
  Total wall time used in HERMIT:   0.40 seconds


                        .----------------------------------.
                        | End of Integral Section (HERMIT) |
                        `----------------------------------'



                   .--------------------------------------------.
                   | Starting in Wave Function Section (SIRIUS) |
                   `--------------------------------------------'


 *** Output from Huckel module :

     Using EWMO model:          F
     Using EHT  model:          T
     Number of Huckel orbitals each symmetry:   24   17    6    3

 Huckel EHT eigenvalues for symmetry :  1
          -20.696981     -15.706037     -11.414963     -11.394549     -11.376733
          -11.362594      -1.749704      -1.558147      -1.202691      -0.944505
           -0.818289      -0.774729      -0.646793      -0.591690      -0.498634
           -0.430348      -0.323011      -0.245688      -0.225402      -0.213717
           -0.205833      -0.178730      -0.166437      -0.160469

 Huckel EHT eigenvalues for symmetry :  2
          -20.699392     -11.396468     -11.377853      -1.385893      -1.203885
           -0.880671      -0.647306      -0.562340      -0.526386      -0.480831
           -0.415184      -0.276814      -0.213318      -0.202801      -0.176240
           -0.165394      -0.163252

 Huckel EHT eigenvalues for symmetry :  3
           -0.799619      -0.673991      -0.467322      -0.384270      -0.281709
           -0.236534

 Huckel EHT eigenvalues for symmetry :  4
           -0.589962      -0.460234      -0.288859

 **********************************************************************
 *SIRIUS* a direct, restricted step, second order MCSCF program       *
 **********************************************************************

 
     Date and time (Linux)  : Tue Feb  4 02:23:43 2020
     Host name              : Lab2-333-NPs                            

 Title lines from ".mol" input file:
      nitrobenzene                                                           
      Generated by the Dalton Input File Plugin for Avogadro                 

 Print level on unit LUPRI =   2 is   0
 Print level on unit LUW4  =   2 is   5

@    MC-SCF optimization.

@    Multi-configurational response calculation.
@              Type: complete active space calculation (CAS).

@    This is a combination run starting with
@              a restricted, closed shell Hartree-Fock calculation
@              an MP2 calculation

 Fock matrices are calculated directly without use of integrals on disk.

 Initial molecular orbitals are obtained according to
 ".MOSTART EHT   " input option

     Wave function specification
     ============================
@    Wave function type        --- MC-SCF ---
@    Number of closed shell electrons          54
@    Number of electrons in active shells      10
@    Total charge of the molecule               0

@    Spin multiplicity and 2 M_S                1         0
@    Total number of symmetries                 4 (point group: C2v)
@    Reference state symmetry                   1 (irrep name : A1 )

     Orbital specifications
     ======================
@    Abelian symmetry species          All |    1    2    3    4
@                                          |  A1   B1   B2   A2 
                                       --- |  ---  ---  ---  ---
@    Inactive orbitals                  27 |   15   10    2    0
@    Active orbitals                     7 |    1    1    2    3
@    Secondary orbitals                254 |   99   80   44   31
@    Total number of orbitals          288 |  115   91   48   34
@    Number of basis functions         288 |  115   91   48   34

      ** Automatic occupation of RHF orbitals **

      -- Initial occupation of symmetries is determined from extended Huckel guess.           
      -- Initial occupation of symmetries is :
@    Occupied SCF orbitals              32 |   16   11    3    2

     Optimization information
     ========================
@    Number of determinants                 115
@    Number of orbital rotations           2762
     ------------------------------------------
@    Total number of variables             2877

     Maximum number of macro iterations      40
     Maximum number of micro iterations     960
     Threshold for MCSCF gradient      1.00D-05
     Number of initial trial vectors          2
     Number of initial CI iterations          3
     Number of simultaneous trial vectors     2

@    This calculation converges to state no.   2 for the specified symmetry and spin species.

     Maximum number of NEO/NR iterations  24

    INFORMATION: Switched to "new" integral transformation (from 1988 ;-) )
    because more than 255 basis functions.


 ***********************************************
 ***** DIIS acceleration of SCF iterations *****
 ***********************************************

 C1-DIIS algorithm; max error vectors =    8

 Automatic occupation of symmetries with  64 electrons.

 Iter     Total energy    Error norm  Delta(E)    SCF occupation
 -----------------------------------------------------------------------------
   1  Screening settings (-IFTHRS, JTDIIS, DIFDEN, times)   -8    1    T  2.61D+01  2.61D+01
@  1  -432.228544467       6.50D+00  -4.32D+02    16  11   3   2
      Virial theorem: -V/T =      1.998534
@    MULPOP   C       0.36; C   _1  0.26; C   _2  0.26; C   _1  0.24; C   _2  0.24; C       0.37; N       1.29; O   _1 -1.03; O   _2 -1.03; H   _1 -0.20; 
@             H   _2 -0.20; H   _1 -0.18; H   _2 -0.18; H      -0.19; 
   1  Level shift: doubly occupied orbital energies shifted by -2.00D-01
 -----------------------------------------------------------------------------
   2  Screening settings (-IFTHRS, JTDIIS, DIFDEN, times)   -8    2    T  2.61D+01  2.61D+01
@  2  -433.821997718       2.98D+00  -1.59D+00    16  11   3   2
      Virial theorem: -V/T =      2.001464
@    MULPOP   C       1.04; C   _1  0.30; C   _2  0.30; C   _1  0.38; C   _2  0.38; C       0.31; N       0.29; O   _1 -0.51; O   _2 -0.51; H   _1 -0.40; 
@             H   _2 -0.40; H   _1 -0.39; H   _2 -0.39; H      -0.40; 
   2  Level shift: doubly occupied orbital energies shifted by -1.00D-01
 -----------------------------------------------------------------------------
   3  Screening settings (-IFTHRS, JTDIIS, DIFDEN, times)   -8    3    T  2.60D+01  2.61D+01
@  3  -434.202860794       7.28D-01  -3.81D-01    16  11   3   2
      Virial theorem: -V/T =      2.000773
@    MULPOP   C       1.79; C   _1  0.20; C   _2  0.20; C   _1  0.44; C   _2  0.44; C       0.28; N       0.65; O   _1 -0.90; O   _2 -0.90; H   _1 -0.45; 
@             H   _2 -0.45; H   _1 -0.44; H   _2 -0.44; H      -0.44; 
   3  Level shift: doubly occupied orbital energies shifted by -2.50D-02
 -----------------------------------------------------------------------------
   4  Screening settings (-IFTHRS, JTDIIS, DIFDEN, times)   -8    4    T  2.59D+01  2.59D+01
@  4  -434.229263644       1.90D-01  -2.64D-02    16  11   3   2
      Virial theorem: -V/T =      2.002621
@    MULPOP   C       1.89; C   _1  0.15; C   _2  0.15; C   _1  0.51; C   _2  0.51; C       0.29; N       0.49; O   _1 -0.87; O   _2 -0.87; H   _1 -0.45; 
@             H   _2 -0.45; H   _1 -0.45; H   _2 -0.45; H      -0.46; 
   4  Level shift: doubly occupied orbital energies shifted by -1.25D-02
 -----------------------------------------------------------------------------
   5  Screening settings (-IFTHRS, JTDIIS, DIFDEN, times)  -10    5    F  2.63D+01  2.63D+01
@  5  -434.232042313       5.59D-02  -2.78D-03    16  11   3   2
      Virial theorem: -V/T =      2.002036
@    MULPOP   C       1.92; C   _1  0.13; C   _2  0.13; C   _1  0.50; C   _2  0.50; C       0.27; N       0.48; O   _1 -0.87; O   _2 -0.87; H   _1 -0.44; 
@             H   _2 -0.44; H   _1 -0.44; H   _2 -0.44; H      -0.44; 
 -----------------------------------------------------------------------------
   6  Screening settings (-IFTHRS, JTDIIS, DIFDEN, times)  -10    6    T  2.61D+01  2.61D+01
@  6  -434.232383089       1.56D-02  -3.41D-04    16  11   3   2
      Virial theorem: -V/T =      2.001955
@    MULPOP   C       1.94; C   _1  0.12; C   _2  0.12; C   _1  0.51; C   _2  0.51; C       0.27; N       0.46; O   _1 -0.87; O   _2 -0.87; H   _1 -0.43; 
@             H   _2 -0.43; H   _1 -0.44; H   _2 -0.44; H      -0.44; 
 -----------------------------------------------------------------------------
   7  Screening settings (-IFTHRS, JTDIIS, DIFDEN, times)  -13    7    F  2.65D+01  2.65D+01
@  7  -434.232415768       6.16D-03  -3.27D-05    16  11   3   2
      Virial theorem: -V/T =      2.001992
@    MULPOP   C       1.95; C   _1  0.12; C   _2  0.12; C   _1  0.51; C   _2  0.51; C       0.27; N       0.46; O   _1 -0.87; O   _2 -0.87; H   _1 -0.43; 
@             H   _2 -0.43; H   _1 -0.44; H   _2 -0.44; H      -0.44; 
 -----------------------------------------------------------------------------
   8  Screening settings (-IFTHRS, JTDIIS, DIFDEN, times)  -13    8    T  2.64D+01  2.64D+01
@  8  -434.232420766       2.12D-03  -5.00D-06    16  11   3   2
      Virial theorem: -V/T =      2.001980
@    MULPOP   C       1.95; C   _1  0.12; C   _2  0.12; C   _1  0.50; C   _2  0.50; C       0.27; N       0.46; O   _1 -0.87; O   _2 -0.87; H   _1 -0.43; 
@             H   _2 -0.43; H   _1 -0.44; H   _2 -0.44; H      -0.44; 
 -----------------------------------------------------------------------------
   9  Screening settings (-IFTHRS, JTDIIS, DIFDEN, times)  -13    9    T  2.63D+01  2.63D+01
@  9  -434.232421338       6.89D-04  -5.73D-07    16  11   3   2
      Virial theorem: -V/T =      2.001977
@    MULPOP   C       1.95; C   _1  0.12; C   _2  0.12; C   _1  0.50; C   _2  0.50; C       0.27; N       0.46; O   _1 -0.87; O   _2 -0.87; H   _1 -0.43; 
@             H   _2 -0.43; H   _1 -0.44; H   _2 -0.44; H      -0.44; 
 -----------------------------------------------------------------------------
  10  Screening settings (-IFTHRS, JTDIIS, DIFDEN, times)  -13   10    T  2.63D+01  2.63D+01
@ 10  -434.232421402       2.40D-04  -6.39D-08    16  11   3   2
      Virial theorem: -V/T =      2.001978
@    MULPOP   C       1.95; C   _1  0.12; C   _2  0.12; C   _1  0.50; C   _2  0.50; C       0.27; N       0.46; O   _1 -0.87; O   _2 -0.87; H   _1 -0.43; 
@             H   _2 -0.43; H   _1 -0.44; H   _2 -0.44; H      -0.44; 
 -----------------------------------------------------------------------------
  11  Screening settings (-IFTHRS, JTDIIS, DIFDEN, times)  -13   11    T  2.62D+01  2.62D+01
@ 11  -434.232421414       9.56D-05  -1.18D-08    16  11   3   2
      Virial theorem: -V/T =      2.001978
@    MULPOP   C       1.95; C   _1  0.12; C   _2  0.12; C   _1  0.50; C   _2  0.50; C       0.27; N       0.46; O   _1 -0.87; O   _2 -0.87; H   _1 -0.43; 
@             H   _2 -0.43; H   _1 -0.44; H   _2 -0.44; H      -0.44; 
 -----------------------------------------------------------------------------
  12  Screening settings (-IFTHRS, JTDIIS, DIFDEN, times)  -13   12    T  2.62D+01  2.62D+01
@ 12  -434.232421416       4.19D-05  -2.39D-09    16  11   3   2
      Virial theorem: -V/T =      2.001978
@    MULPOP   C       1.95; C   _1  0.12; C   _2  0.12; C   _1  0.50; C   _2  0.50; C       0.27; N       0.46; O   _1 -0.87; O   _2 -0.87; H   _1 -0.43; 
@             H   _2 -0.43; H   _1 -0.44; H   _2 -0.44; H      -0.44; 
 -----------------------------------------------------------------------------
  13  Screening settings (-IFTHRS, JTDIIS, DIFDEN, times)  -13   13    T  2.61D+01  2.62D+01
@ 13  -434.232421417       2.26D-05  -3.82D-10    16  11   3   2
      Virial theorem: -V/T =      2.001978
@    MULPOP   C       1.95; C   _1  0.12; C   _2  0.12; C   _1  0.50; C   _2  0.50; C       0.27; N       0.46; O   _1 -0.87; O   _2 -0.87; H   _1 -0.43; 
@             H   _2 -0.43; H   _1 -0.44; H   _2 -0.44; H      -0.44; 
 -----------------------------------------------------------------------------
  14  Screening settings (-IFTHRS, JTDIIS, DIFDEN, times)  -13   14    T  2.62D+01  2.62D+01
@ 14  -434.232421417       7.84D-06  -1.70D-10    16  11   3   2
      Virial theorem: -V/T =      2.001978
@    MULPOP   C       1.95; C   _1  0.12; C   _2  0.12; C   _1  0.50; C   _2  0.50; C       0.27; N       0.46; O   _1 -0.87; O   _2 -0.87; H   _1 -0.43; 
@             H   _2 -0.43; H   _1 -0.44; H   _2 -0.44; H      -0.44; 
 -----------------------------------------------------------------------------
  15  Screening settings (-IFTHRS, JTDIIS, DIFDEN, times)  -13   15    T  2.61D+01  2.61D+01
@ 15  -434.232421417       2.88D-06  -2.10D-11    16  11   3   2
      Virial theorem: -V/T =      2.001978
@    MULPOP   C       1.95; C   _1  0.12; C   _2  0.12; C   _1  0.50; C   _2  0.50; C       0.27; N       0.46; O   _1 -0.87; O   _2 -0.87; H   _1 -0.43; 
@             H   _2 -0.43; H   _1 -0.44; H   _2 -0.44; H      -0.44; 
 -----------------------------------------------------------------------------
  16  Screening settings (-IFTHRS, JTDIIS, DIFDEN, times)  -13   16    T  2.60D+01  2.60D+01
@ 16  -434.232421417       1.29D-06   7.05D-12    16  11   3   2
      Virial theorem: -V/T =      2.001978
@    MULPOP   C       1.95; C   _1  0.12; C   _2  0.12; C   _1  0.50; C   _2  0.50; C       0.27; N       0.46; O   _1 -0.87; O   _2 -0.87; H   _1 -0.43; 
@             H   _2 -0.43; H   _1 -0.44; H   _2 -0.44; H      -0.44; 
 -----------------------------------------------------------------------------
  17  Screening settings (-IFTHRS, JTDIIS, DIFDEN, times)  -13   17    T  2.60D+01  2.60D+01
@ 17  -434.232421417       5.18D-07  -6.25D-12    16  11   3   2

@ *** DIIS converged in  17 iterations !
@     Converged SCF energy, gradient:   -434.232421417034    5.18D-07
    - total time used in SIRFCK :              0.00 seconds

 --- Writing SIRIFC interface file

 CPU and wall time for SCF :     445.500     445.592


 ----- Output from SIRIUS MP2 module -----

 Reference: H.J.Aa.Jensen, P.Jorgensen, H.Agren, and J.Olsen,
            J. Chem. Phys. 88, 3834 (1988); 89, 5354 (1988)

 Checking that the closed shell orbitals are canonical Hartree-Fock orbitals

    Number of electrons  :   64
    Closed shell orbitals:   16   11    3    2

 Generating Fock matrix

 Hartree-Fock electronic energy:        -845.480735004313
 Hartree-Fock total      energy:        -434.232421417020

 Hartree-Fock orbital energies, symmetry 1 ( A1 ),   16 occupied SCF orbitals

       -20.60612224   -15.85816906   -11.32615735   -11.28848980   -11.28505693
       -11.27728806    -1.61143067    -1.20689935    -1.10025575    -0.96646902
        -0.83241646    -0.78156937    -0.71389195    -0.65509656    -0.56074816
        -0.50194718     0.02561581     0.04364078     0.06203639     0.10405141
         0.13027389     0.13426697     0.14977562     0.15651653     0.17293067
         0.18184967     0.21275750     0.25769773     0.28866226     0.29855982
         0.31519469     0.33558301     0.34828869     0.35172619     0.37056769
         0.39621740     0.41215004     0.42673045     0.45507956     0.48355244
         0.52082908     0.55935211     0.57689480     0.60084015     0.63072721
         0.64911176     0.65712830     0.67449605     0.72600835     0.73713944
         0.74119609     0.83508044     0.88646954     0.93628362     0.95329267
         0.96511829     1.00430735     1.06647258     1.07874860     1.13428753
         1.26938292     1.35764583     1.37478785     1.45177938     1.49439122
         1.50759941     1.54346258     1.56611651     1.57612561     1.60797290
         1.67708793     1.71280725     1.74458592     1.77962455     1.87061728
         1.93593417     1.95048858     2.00642424     2.02193076     2.13747598
         2.18917569     2.23619796     2.30033379     2.37345461     2.41822038
         2.44258560     2.54212159     2.68855432     2.76054385     2.81978333
         2.88400825     2.94838118     3.03512599     3.14219841     3.26876113
         3.41475374     3.74891322     4.02216942     4.07412898     4.22787657
        19.80456594    20.33038936    20.45129614    20.61658914    23.34963958
        23.40993412    23.42591637    23.81632371    23.91284057    24.11959050
        27.06284811    31.28230043    35.77059264    39.71029816    39.77132238

 Hartree-Fock orbital energies, symmetry 2 ( B1 ),   11 occupied SCF orbitals

       -20.60618140   -11.28852748   -11.27739116    -1.38906105    -1.05935094
        -0.87131005    -0.72425353    -0.65997610    -0.62920252    -0.53572002
        -0.48124679     0.03528391     0.05984431     0.12963832     0.13236565
         0.15257636     0.17459216     0.18297159     0.21395201     0.26189054
         0.28846838     0.31259196     0.33373243     0.35954338     0.36748070
         0.39286696     0.42076142     0.43706649     0.45739857     0.56539165
         0.57395802     0.58613650     0.64662237     0.66272525     0.67674859
         0.69585018     0.75555263     0.76158889     0.82685329     0.84351072
         0.86175340     0.92086571     1.01711624     1.14277241     1.20390908
         1.24484646     1.33364236     1.39300320     1.40707296     1.48337752
         1.57313513     1.58558074     1.61973509     1.63613424     1.69671797
         1.75611238     1.76764110     1.78833073     1.88381125     1.92731268
         2.00596055     2.08224573     2.23142070     2.26434986     2.34050967
         2.34516623     2.38480873     2.51696296     2.58073388     2.76433625
         2.89536078     2.93840996     3.10622675     3.29585749     3.34444489
         3.41148513     3.74948740     3.84272411     4.21293887    20.29317933
        20.47318122    22.89465949    23.33419532    23.38134678    23.93600569
        24.11720966    24.30439378    31.43464628    35.58157391    39.65041365
        40.08189628

 Hartree-Fock orbital energies, symmetry 3 ( B2 ),    3 occupied SCF orbitals

        -0.71656798    -0.54092156    -0.38205349     0.03274278     0.10528293
         0.12507092     0.13761423     0.18302337     0.19132432     0.24745287
         0.31621816     0.34009181     0.37566949     0.44376698     0.53195907
         0.58523892     0.64135463     0.71194523     0.78795004     0.84317699
         0.86840750     0.91874839     0.92354071     0.98633174     1.14158183
         1.26777876     1.28682996     1.46947918     1.47478856     1.61152321
         1.67111165     1.70440734     1.83369580     1.89786315     1.98386281
         2.07916102     2.17331405     2.29522949     2.54070870     2.67480743
         3.66200087     3.80806668    22.53950326    22.68785876    22.82409924
        23.02265476    30.55814393    39.42444476

 Hartree-Fock orbital energies, symmetry 4 ( A2 ),    2 occupied SCF orbitals

        -0.44731937    -0.37294238     0.08301910     0.13009729     0.18482425
         0.29883731     0.41136417     0.48906970     0.54404542     0.65612540
         0.73369004     0.89322502     0.89757661     0.94044888     1.04131266
         1.08288012     1.21224679     1.25198072     1.34357260     1.48116899
         1.66837209     1.68583933     1.85815721     1.98423767     2.11306777
         2.20583067     2.35034546     2.47630291     2.60205138     3.66626544
         3.98660373    22.68865093    22.85500538    39.49627164

    E(LUMO) :     0.02561581   (in symmetry 1)
  - E(HOMO) :    -0.37294238   (in symmetry 4)
  --------------------------
    gap     :     0.39855819

---> (Re)generating AOTWOINT


     ************************************************************************
     ************************** Output from HERINT **************************
     ************************************************************************


 Threshold for neglecting two-electron integrals:  1.00D-12
 HERMIT - Number of two-electron integrals written:   203044952 ( 23.4% )
 HERMIT - Megabytes written:                           3099.518

  Time used in TWOINT     is      36.50 seconds

 2-el. integral transformation level 5: Total CPU and WALL times (sec)     386.719     389.330

 MP2 move   0.993751 electrons to unoccupied HF orbitals


@   Hartree-Fock total energy   :          -434.2324214170
@   + MP2 contribution          :            -1.7251799358
@   = MP2 second order energy   :          -435.9576013528

 Natural orbital occupation numbers, symmetry 1 (irrep A1 )
 Sum =    32.00678270; RHF =    32.00000000; Difference =     0.00678270

         1.99929034     1.99907567     1.99876147     1.99875645     1.99875169
         1.99874759     1.98699962     1.98414475     1.97947689     1.97232610
         1.96898404     1.96825955     1.96563503     1.96218428     1.95510669
         1.94592918     0.04099470     0.03585279     0.02543060     0.02380552
         0.01924266     0.01860795     0.01728213     0.01642852     0.01376034
         0.01271625     0.01181109     0.00982098     0.00853675     0.00783507
         0.00755624     0.00670145     0.00566164     0.00454339     0.00307532
         0.00295169     0.00272594     0.00263049     0.00222371     0.00202184
         0.00184930     0.00166847     0.00160212     0.00131204     0.00120854
         0.00116859     0.00105909     0.00096112     0.00071337     0.00065075
         0.00061107     0.00053822     0.00049752     0.00045682     0.00043980
         0.00041532     0.00040838     0.00038502     0.00037721     0.00035353
         0.00034341     0.00032534     0.00031453     0.00029482     0.00026690
         0.00025848     0.00022481     0.00022373     0.00020424     0.00019539
         0.00018653     0.00018551     0.00017628     0.00017120     0.00016783
         0.00016176     0.00015554     0.00015082     0.00014023     0.00013291
         0.00012680     0.00012451     0.00012190     0.00011188     0.00010354
         0.00009398     0.00007750     0.00007085     0.00006073     0.00005672
         0.00005223     0.00004129     0.00003419     0.00002764     0.00002161
         0.00001683     0.00001459     0.00001190     0.00001122     0.00000935
         0.00000867     0.00000835     0.00000705     0.00000318     0.00000299
         0.00000195     0.00000111     0.00000056     0.00000035     0.00000019
         0.00000015    -0.00000001    -0.00000010    -0.00000050    -0.00004344

 Natural orbital occupation numbers, symmetry 2 (irrep B1 )
 Sum =    21.95465534; RHF =    22.00000000; Difference =    -0.04534466

         1.99929021     1.99875724     1.99875096     1.98397245     1.98003733
         1.97274690     1.96243411     1.96047636     1.95488099     1.95433706
         1.94679640     0.03909629     0.02537266     0.02377158     0.01927570
         0.01658759     0.01592591     0.01521765     0.01131480     0.01043773
         0.00909272     0.00761003     0.00579910     0.00536854     0.00517814
         0.00377340     0.00311876     0.00276645     0.00241127     0.00212666
         0.00173532     0.00162124     0.00152277     0.00131619     0.00119052
         0.00102870     0.00097536     0.00069436     0.00063936     0.00056459
         0.00048595     0.00043959     0.00042182     0.00037215     0.00035295
         0.00033491     0.00029941     0.00028924     0.00026864     0.00026033
         0.00023908     0.00021083     0.00019775     0.00018800     0.00018259
         0.00017708     0.00016949     0.00016922     0.00016005     0.00015404
         0.00014295     0.00013357     0.00012882     0.00012550     0.00011837
         0.00011293     0.00009414     0.00009011     0.00006964     0.00005139
         0.00004501     0.00003643     0.00003013     0.00002883     0.00002221
         0.00001538     0.00001391     0.00001130     0.00001062     0.00000829
         0.00000467     0.00000373     0.00000173     0.00000123     0.00000061
         0.00000029     0.00000013    -0.00000001    -0.00000023    -0.00000068
        -0.00003212

 Natural orbital occupation numbers, symmetry 3 (irrep B2 )
 Sum =     6.07781242; RHF =     6.00000000; Difference =     0.07781242

         1.95023055     1.94427676     1.90927572     0.10193478     0.06750744
         0.02959987     0.01046760     0.01027964     0.00870188     0.00800752
         0.00620652     0.00530899     0.00449285     0.00391614     0.00342256
         0.00305078     0.00152781     0.00143387     0.00098732     0.00088080
         0.00085931     0.00065923     0.00060787     0.00049720     0.00047062
         0.00041852     0.00033431     0.00028890     0.00025186     0.00023062
         0.00019888     0.00019580     0.00018977     0.00017786     0.00015227
         0.00013072     0.00012173     0.00011042     0.00010014     0.00008291
         0.00007943     0.00006310     0.00003615     0.00002046     0.00001044
         0.00000825     0.00000498     0.00000127

 Natural orbital occupation numbers, symmetry 4 (irrep A2 )
 Sum =     3.96074954; RHF =     4.00000000; Difference =    -0.03925046

         1.91630382     1.90846541     0.06641985     0.01460652     0.01037617
         0.00932597     0.00788825     0.00569986     0.00502039     0.00404687
         0.00357990     0.00153248     0.00122201     0.00093377     0.00077657
         0.00072675     0.00066901     0.00056172     0.00040537     0.00036957
         0.00033978     0.00029284     0.00021669     0.00019689     0.00016502
         0.00013205     0.00011680     0.00010428     0.00009288     0.00006937
         0.00004981     0.00002048     0.00001737     0.00000505

 Time used for MP2 natural orbitals :     416.484 CPU seconds,     419.083 wall seconds.

 CPU and wall time for MP2 :     416.484     419.083


        SIRIUS MCSCF optimization (SIROPT)
 ================================================


 Fock matrix screening setting for SIRCNO: IFTHRS =    9


 ----- Output from SIRIUS CI module (CICTL) -----




 2-el. integral transformation level 0: Total CPU and WALL times (sec)      94.719      94.714


 --- SIRCI.CIST1: plus combination of all degenerate
                 configurations is used as start vectors.


 (CIST1) 18 lowest diagonal elements:

 Element no. Config.no.    Active energy      Total energy

         1 :         67    -17.3222680151   -434.2139635818
         2 :         69    -17.0309510819   -433.9226466487
         3 :         81    -17.0309510819   -433.9226466487
         4 :         68    -16.9704977886   -433.8621933553
         5 :         74    -16.9704977886   -433.8621933553
         6 :         78    -16.8803321090   -433.7720276757
         7 :         96    -16.8803321090   -433.7720276757
         8 :         71    -16.8355391935   -433.7272347603
         9 :         95    -16.8355391935   -433.7272347603
        10 :         54    -16.7279334860   -433.6196290528
        11 :         63    -16.7279334860   -433.6196290528
        12 :         83    -16.7251162561   -433.6168118228
        13 :         76    -16.6911205616   -433.5828161283
        14 :         82    -16.6911205616   -433.5828161283
        15 :         58    -16.6907148475   -433.5824104143
        16 :         64    -16.6907148475   -433.5824104143
        17 :         72    -16.6838745365   -433.5755701032
        18 :        102    -16.6838745365   -433.5755701032


 Convergence threshold for CI optimization :     0.00000500



 *** Reached maximum number of CI iterations:    3
              1 CI roots are not converged.


@ Final CI energies and residuals in symmetry 1 (irrep A1 )
@    1     -434.262203592398350       3.99D-02
@    2     -433.894700502571254       6.30D-03
@    3     -433.866673957667217       2.07D-02
@    4     -433.840558651542551       2.59D-02
@    5     -433.797723186126518       6.60D-02
@    6     -433.635371774062946       7.67D-02

   --- OUTPUT FROM SIRCNO     Keyword = FD+NO 


 Occupations of CAS natural orbitals:

 Symmetry  1 ( irrep A1  in C2v )

   1.999883299

 Symmetry  2 ( irrep B1  in C2v )

   1.999913628

 Symmetry  3 ( irrep B2  in C2v )

   1.534717400   0.513786113

 Symmetry  4 ( irrep A2  in C2v )

   1.936376915   1.450619867   0.564702779


 --- MACRO ITERATION  1 ---
 --------------------------

 2-el. integral transformation level 3: Total CPU and WALL times (sec)      95.969      96.015

 Fock matrix screening setting for this macro iteration: 10^( -9)

 Total MCSCF energy       :          -433.894700503512240  (MACRO    1)

 - Nuclear repulsion      :           411.248313587292671
 - Inactive energy        :          -828.140009157064469
 - Active energy          :           -17.003004933740471

 Norm of total gradient   :             0.781217280219
 -    of CI gradient      :             0.012596352292
 -    of orbital gradient :             0.781115721786
      Virial theorem: -V/T =      1.997083
@    MULPOP   C       1.74; C   _1  0.29; C   _2  0.29; C   _1  0.49; C   _2  0.49; C       0.44; N       0.18; O   _1 -0.78; O   _2 -0.78; H   _1 -0.49; 
@             H   _2 -0.49; H   _1 -0.47; H   _2 -0.47; H      -0.47; 

 (SIRNEO) iteration (  1,  6)
 Micro iteration termination criterion met, EVAL(ISTATE+1) = -2.61D-01

   --- OUTPUT FROM SIRCNO     Keyword = FD+NO 


 Occupations of CAS natural orbitals:

 Symmetry  1 ( irrep A1  in C2v )

   1.999860614

 Symmetry  2 ( irrep B1  in C2v )

   1.999923191

 Symmetry  3 ( irrep B2  in C2v )

   1.140716218   0.929070423

 Symmetry  4 ( irrep A2  in C2v )

   1.949165314   1.821888226   0.159376013


 --- MACRO ITERATION  2 ---
 --------------------------

 2-el. integral transformation level 3: Total CPU and WALL times (sec)      96.109      96.118

 Fock matrix screening setting for this macro iteration: 10^( -9)

 Total MCSCF energy       :          -434.006397025364492  (MACRO    2)

 - Nuclear repulsion      :           411.248313587292671
 - Inactive energy        :          -827.960402852343123
 - Active energy          :           -17.294307760314059

 Norm of total gradient   :             0.469151854815
 -    of CI gradient      :             0.159601341777
 -    of orbital gradient :             0.441169893102
      Virial theorem: -V/T =      2.001915
@    MULPOP   C       1.98; C   _1  0.13; C   _2  0.13; C   _1  0.55; C   _2  0.55; C       0.31; N       0.34; O   _1 -0.93; O   _2 -0.93; H   _1 -0.44; 
@             H   _2 -0.44; H   _1 -0.43; H   _2 -0.43; H      -0.41; 

 Residual norm when dim(red L) =  11
 NEO root     CSF        orbital          total
    2     0.06665015     0.02770421     0.07217871 converged

 (NEONEX) NEO vector is converged.

   --- OUTPUT FROM SIRCNO     Keyword = FD+NO 


 Occupations of CAS natural orbitals:

 Symmetry  1 ( irrep A1  in C2v )

   1.999920929

 Symmetry  2 ( irrep B1  in C2v )

   1.999926649

 Symmetry  3 ( irrep B2  in C2v )

   1.190703722   0.864548850

 Symmetry  4 ( irrep A2  in C2v )

   1.960633523   1.844656942   0.139609385


 --- MACRO ITERATION  3 ---
 --------------------------

 2-el. integral transformation level 3: Total CPU and WALL times (sec)      95.906      95.962

 Fock matrix screening setting for this macro iteration: 10^( -9)

 Total MCSCF energy       :          -434.040278155340673  (MACRO    3)

 - Nuclear repulsion      :           411.248313587292671
 - Inactive energy        :          -828.082097573126930
 - Active energy          :           -17.206494169506399

 Norm of total gradient   :             0.093294146258
 -    of CI gradient      :             0.070837625649
 -    of orbital gradient :             0.060711024687
      Virial theorem: -V/T =      2.000490
@    MULPOP   C       1.96; C   _1  0.17; C   _2  0.17; C   _1  0.56; C   _2  0.56; C       0.27; N       0.42; O   _1 -1.01; O   _2 -1.01; H   _1 -0.43; 
@             H   _2 -0.43; H   _1 -0.41; H   _2 -0.41; H      -0.40; 

 Residual norm when dim(red L) =  10
 NEO root     CSF        orbital          total
    1     0.05759380     0.06623788     0.08777530 converged

 (NEONEX) NEO auxiliary root no.  1 is converged.

 Residual norm when dim(red L) =  26
 NEO root     CSF        orbital          total
    2     0.01539645     0.00909546     0.01788234 converged

 (NEONEX) NEO vector is converged.

   --- OUTPUT FROM SIRCNO     Keyword = FD+NO 


 Occupations of CAS natural orbitals:

 Symmetry  1 ( irrep A1  in C2v )

   1.999337853

 Symmetry  2 ( irrep B1  in C2v )

   1.999991591

 Symmetry  3 ( irrep B2  in C2v )

   1.307965904   0.720290208

 Symmetry  4 ( irrep A2  in C2v )

   1.936704737   1.961127443   0.074582264


 --- MACRO ITERATION  4 ---
 --------------------------

 2-el. integral transformation level 3: Total CPU and WALL times (sec)      96.797      96.838

 Fock matrix screening setting for this macro iteration: 10^( -9)

 Total MCSCF energy       :          -434.040944853313363  (MACRO    4)

 - Nuclear repulsion      :           411.248313587292671
 - Inactive energy        :          -827.807374064379019
 - Active energy          :           -17.481884376226986

 Norm of total gradient   :             0.216139984338
 -    of CI gradient      :             0.081694797427
 -    of orbital gradient :             0.200106104112
      Virial theorem: -V/T =      2.001125
@    MULPOP   C       1.85; C   _1  0.19; C   _2  0.19; C   _1  0.58; C   _2  0.58; C       0.27; N       0.49; O   _1 -1.05; O   _2 -1.05; H   _1 -0.42; 
@             H   _2 -0.42; H   _1 -0.40; H   _2 -0.40; H      -0.39; 

 (SIRSTP) Energy difference;
 actual, predicted and ratio:  -0.000666697972690  -0.011349228083840    0.058744

 (SIRSTP) step is too large -- backstep

   --- OUTPUT FROM SIRCNO     Keyword = FD+NO 


 Occupations of CAS natural orbitals:

 Symmetry  1 ( irrep A1  in C2v )

   1.999689491

 Symmetry  2 ( irrep B1  in C2v )

   1.999996808

 Symmetry  3 ( irrep B2  in C2v )

   1.315645064   0.724922200

 Symmetry  4 ( irrep A2  in C2v )

   1.956450127   1.946287811   0.057008499


 Optimization control: Step was too large, we backstep


 --- MACRO ITERATION  4 BACKSTEP NO.  1 ---

 2-el. integral transformation level 3: Total CPU and WALL times (sec)      96.406      96.393

 Fock matrix screening setting for this macro iteration: 10^( -9)

 Total MCSCF energy       :          -434.047581376126061  (MACRO    4)

 - Nuclear repulsion      :           411.248313587292671
 - Inactive energy        :          -827.985399197407787
 - Active energy          :           -17.310495766010948

 Norm of total gradient   :             0.098587636542
 -    of CI gradient      :             0.030273583271
 -    of orbital gradient :             0.093824475671
      Virial theorem: -V/T =      2.000786
@    MULPOP   C       1.90; C   _1  0.18; C   _2  0.18; C   _1  0.59; C   _2  0.59; C       0.26; N       0.46; O   _1 -1.05; O   _2 -1.05; H   _1 -0.42; 
@             H   _2 -0.42; H   _1 -0.41; H   _2 -0.41; H      -0.40; 

 Residual norm when dim(red L) =   7
 NEO root     CSF        orbital          total
    2     0.01606865     0.00893235     0.01838446 converged

 (NEONEX) NEO vector is converged.

   --- OUTPUT FROM SIRCNO     Keyword = FD+NO 


 Occupations of CAS natural orbitals:

 Symmetry  1 ( irrep A1  in C2v )

   1.999787952

 Symmetry  2 ( irrep B1  in C2v )

   1.999992623

 Symmetry  3 ( irrep B2  in C2v )

   1.289410131   0.750505218

 Symmetry  4 ( irrep A2  in C2v )

   1.958119456   1.947881536   0.054303084


 --- MACRO ITERATION  5 ---
 --------------------------

 2-el. integral transformation level 3: Total CPU and WALL times (sec)      96.422      96.415

 Fock matrix screening setting for this macro iteration: 10^( -9)

 Total MCSCF energy       :          -434.049074482657772  (MACRO    5)

 - Nuclear repulsion      :           411.248313587292671
 - Inactive energy        :          -827.974475660509938
 - Active energy          :           -17.322912409440505

 Norm of total gradient   :             0.018609279140
 -    of CI gradient      :             0.016392312499
 -    of orbital gradient :             0.008808936430
      Virial theorem: -V/T =      2.000422
@    MULPOP   C       1.95; C   _1  0.19; C   _2  0.19; C   _1  0.57; C   _2  0.57; C       0.27; N       0.44; O   _1 -1.06; O   _2 -1.06; H   _1 -0.43; 
@             H   _2 -0.43; H   _1 -0.41; H   _2 -0.41; H      -0.40; 

 Residual norm when dim(red L) =  10
 NEO root     CSF        orbital          total
    1     0.04183551     0.08074742     0.09094149 converged

 (NEONEX) NEO auxiliary root no.  1 is converged.

 (SIRNEO) iteration (  5, 15)
 Micro iteration termination criterion met, EVAL(ISTATE+1) = -1.82D-05

   --- OUTPUT FROM SIRCNO     Keyword = FD+NO 


 Occupations of CAS natural orbitals:

 Symmetry  1 ( irrep A1  in C2v )

   1.999067790

 Symmetry  2 ( irrep B1  in C2v )

   1.999997642

 Symmetry  3 ( irrep B2  in C2v )

   1.278760225   0.766184557

 Symmetry  4 ( irrep A2  in C2v )

   1.962385841   1.946514472   0.047089473


 --- MACRO ITERATION  6 ---
 --------------------------

 2-el. integral transformation level 3: Total CPU and WALL times (sec)      96.156      96.153

 Fock matrix screening setting for this macro iteration: 10^( -9)

 Total MCSCF energy       :          -434.049533482749496  (MACRO    6)

 - Nuclear repulsion      :           411.248313587292671
 - Inactive energy        :          -827.522545652802592
 - Active energy          :           -17.775301417239575

 Norm of total gradient   :             0.012423176041
 -    of CI gradient      :             0.009911548691
 -    of orbital gradient :             0.007489760043
      Virial theorem: -V/T =      2.000451
@    MULPOP   C       1.95; C   _1  0.19; C   _2  0.19; C   _1  0.57; C   _2  0.57; C       0.27; N       0.44; O   _1 -1.06; O   _2 -1.06; H   _1 -0.42; 
@             H   _2 -0.42; H   _1 -0.41; H   _2 -0.41; H      -0.40; 

 Residual norm when dim(red L) =   8
 NEO root     CSF        orbital          total
    1     0.04512273     0.06554007     0.07957111 converged

 (NEONEX) NEO auxiliary root no.  1 is converged.

 (SIRNEO) iteration (  6, 24)
 maximum number of microiterations reached

   --- OUTPUT FROM SIRCNO     Keyword = FD+NO 


 Occupations of CAS natural orbitals:

 Symmetry  1 ( irrep A1  in C2v )

   1.999795521

 Symmetry  2 ( irrep B1  in C2v )

   1.999991195

 Symmetry  3 ( irrep B2  in C2v )

   1.267042029   0.782060668

 Symmetry  4 ( irrep A2  in C2v )

   1.965378803   1.944352673   0.041379111


 --- MACRO ITERATION  7 ---
 --------------------------

 2-el. integral transformation level 3: Total CPU and WALL times (sec)      96.828      96.865

 Fock matrix screening setting for this macro iteration: 10^( -9)

 Total MCSCF energy       :          -434.049764426472109  (MACRO    7)

 - Nuclear repulsion      :           411.248313587292671
 - Inactive energy        :          -826.804482735468582
 - Active energy          :           -18.493595278296183

 Norm of total gradient   :             0.015236552186
 -    of CI gradient      :             0.013504390146
 -    of orbital gradient :             0.007055775600
      Virial theorem: -V/T =      2.000433
@    MULPOP   C       1.95; C   _1  0.19; C   _2  0.19; C   _1  0.58; C   _2  0.58; C       0.26; N       0.45; O   _1 -1.06; O   _2 -1.06; H   _1 -0.42; 
@             H   _2 -0.42; H   _1 -0.42; H   _2 -0.42; H      -0.40; 

 Residual norm when dim(red L) =   8
 NEO root     CSF        orbital          total
    1     0.05991603     0.07501231     0.09600405 converged

 (NEONEX) NEO auxiliary root no.  1 is converged.

 (SIRNEO) iteration (  7,  7)
 Micro iteration termination criterion met, EVAL(ISTATE+1) = -2.13D-05

   --- OUTPUT FROM SIRCNO     Keyword = FD+NO 


 Occupations of CAS natural orbitals:

 Symmetry  1 ( irrep A1  in C2v )

   1.999508111

 Symmetry  2 ( irrep B1  in C2v )

   1.999788120

 Symmetry  3 ( irrep B2  in C2v )

   1.269020185   0.780504464

 Symmetry  4 ( irrep A2  in C2v )

   1.964784715   1.944420069   0.041974335


 --- MACRO ITERATION  8 ---
 --------------------------

 2-el. integral transformation level 3: Total CPU and WALL times (sec)      96.906      96.935

 Fock matrix screening setting for this macro iteration: 10^( -9)

 Total MCSCF energy       :          -434.050000470737700  (MACRO    8)

 - Nuclear repulsion      :           411.248313587292671
 - Inactive energy        :          -827.003679039095459
 - Active energy          :           -18.294635018934891

 Norm of total gradient   :             0.009128131367
 -    of CI gradient      :             0.006026703439
 -    of orbital gradient :             0.006855773326
      Virial theorem: -V/T =      2.000440
@    MULPOP   C       1.97; C   _1  0.18; C   _2  0.18; C   _1  0.58; C   _2  0.58; C       0.26; N       0.44; O   _1 -1.06; O   _2 -1.06; H   _1 -0.42; 
@             H   _2 -0.42; H   _1 -0.42; H   _2 -0.42; H      -0.40; 

 Residual norm when dim(red L) =   8
 NEO root     CSF        orbital          total
    1     0.06602393     0.07072644     0.09675427 converged

 (NEONEX) NEO auxiliary root no.  1 is converged.

 Residual norm when dim(red L) =  28
 NEO root     CSF        orbital          total
    2     0.00132522     0.00073081     0.00151337 converged

 (NEONEX) NEO vector is converged.

   --- OUTPUT FROM SIRCNO     Keyword = FD+NO 


 Occupations of CAS natural orbitals:

 Symmetry  1 ( irrep A1  in C2v )

   1.999407804

 Symmetry  2 ( irrep B1  in C2v )

   1.998943987

 Symmetry  3 ( irrep B2  in C2v )

   1.264085590   0.786263081

 Symmetry  4 ( irrep A2  in C2v )

   1.964707204   1.944469333   0.042123001


 --- MACRO ITERATION  9 ---
 --------------------------

 2-el. integral transformation level 3: Total CPU and WALL times (sec)      96.172      96.231

 Fock matrix screening setting for this macro iteration: 10^( -9)

 Total MCSCF energy       :          -434.050251835109634  (MACRO    9)

 - Nuclear repulsion      :           411.248313587292671
 - Inactive energy        :          -827.125531540630845
 - Active energy          :           -18.173033881771442

 Norm of total gradient   :             0.018278051597
 -    of CI gradient      :             0.018152119117
 -    of orbital gradient :             0.002141901433
      Virial theorem: -V/T =      2.000424
@    MULPOP   C       1.97; C   _1  0.18; C   _2  0.18; C   _1  0.58; C   _2  0.58; C       0.26; N       0.44; O   _1 -1.06; O   _2 -1.06; H   _1 -0.42; 
@             H   _2 -0.42; H   _1 -0.42; H   _2 -0.42; H      -0.41; 

[...]
      ----------------------------------------------------------------
         1    1.21533D+01  7.20D+00  9.79D+00  5.26D+02    1.16800D-01

 ** RSPCTL MICROITERATION NUMBER   10

 *** INFO, negative eigenvalues in reduced matrix. Symmetry  1,  triplet       F Dimension of reduced matrix =    22

 GP * SOLUTION vector at frequency     0.11680 a.u.
 after   11 linear transformations is      2.39003943D+04
 INERTIA (POS,ZER,NEG) of reduced matrix is   20    0    2
 Determinant of reduced matrix is  1.75 * 10 **-15.0

       No.  Residual tot.,    conf., and orb.    Bnorm      Frequency 
      ----------------------------------------------------------------
         1    4.01486D+01  1.75D+01  3.61D+01  6.37D+02    1.16800D-01

 ** RSPCTL MICROITERATION NUMBER   11

 *** INFO, negative eigenvalues in reduced matrix. Symmetry  1,  triplet       F Dimension of reduced matrix =    24

 GP * SOLUTION vector at frequency     0.11680 a.u.
 after   12 linear transformations is      2.21159371D+04
 INERTIA (POS,ZER,NEG) of reduced matrix is   21    0    3
 Determinant of reduced matrix is -4.34 * 10 **-18.0

       No.  Residual tot.,    conf., and orb.    Bnorm      Frequency 
      ----------------------------------------------------------------
         1    6.17317D+01  4.16D+01  4.56D+01  8.41D+02    1.16800D-01

 ** RSPCTL MICROITERATION NUMBER   12

 *** INFO, negative eigenvalues in reduced matrix. Symmetry  1,  triplet       F Dimension of reduced matrix =    26

 GP * SOLUTION vector at frequency     0.11680 a.u.
 after   13 linear transformations is      2.27953975D+04
 INERTIA (POS,ZER,NEG) of reduced matrix is   23    0    3
 Determinant of reduced matrix is -8.53 * 10 **-20.0

       No.  Residual tot.,    conf., and orb.    Bnorm      Frequency 
      ----------------------------------------------------------------
         1    2.31015D+01  2.03D+01  1.11D+01  6.01D+02    1.16800D-01

 ** RSPCTL MICROITERATION NUMBER   13

 *** INFO, negative eigenvalues in reduced matrix. Symmetry  1,  triplet       F Dimension of reduced matrix =    28

 GP * SOLUTION vector at frequency     0.11680 a.u.
 after   14 linear transformations is      2.31767371D+04
 INERTIA (POS,ZER,NEG) of reduced matrix is   25    0    3
 Determinant of reduced matrix is -1.72 * 10 **-20.0

       No.  Residual tot.,    conf., and orb.    Bnorm      Frequency 
      ----------------------------------------------------------------
         1    1.03443D+01  8.97D+00  5.16D+00  5.20D+02    1.16800D-01

 ** RSPCTL MICROITERATION NUMBER   14

 *** INFO, negative eigenvalues in reduced matrix. Symmetry  1,  triplet       F Dimension of reduced matrix =    30

 GP * SOLUTION vector at frequency     0.11680 a.u.
 after   15 linear transformations is      2.32119350D+04
 INERTIA (POS,ZER,NEG) of reduced matrix is   27    0    3
 Determinant of reduced matrix is -8.37 * 10 **-21.0

       No.  Residual tot.,    conf., and orb.    Bnorm      Frequency 
      ----------------------------------------------------------------
         1    6.12854D+00  4.10D+00  4.55D+00  5.17D+02    1.16800D-01

 ** RSPCTL MICROITERATION NUMBER   15

 *** INFO, negative eigenvalues in reduced matrix. Symmetry  1,  triplet       F Dimension of reduced matrix =    32

 GP * SOLUTION vector at frequency     0.11680 a.u.
 after   16 linear transformations is      2.32389345D+04
 INERTIA (POS,ZER,NEG) of reduced matrix is   29    0    3
 Determinant of reduced matrix is -6.41 * 10 **-23.0

       No.  Residual tot.,    conf., and orb.    Bnorm      Frequency 
      ----------------------------------------------------------------
         1    5.46831D+00  4.22D+00  3.47D+00  5.15D+02    1.16800D-01

 ** RSPCTL MICROITERATION NUMBER   16

 *** INFO, negative eigenvalues in reduced matrix. Symmetry  1,  triplet       F Dimension of reduced matrix =    34

 GP * SOLUTION vector at frequency     0.11680 a.u.
 after   17 linear transformations is      2.32615035D+04
 INERTIA (POS,ZER,NEG) of reduced matrix is   31    0    3
 Determinant of reduced matrix is -5.08 * 10 **-24.0

       No.  Residual tot.,    conf., and orb.    Bnorm      Frequency 
      ----------------------------------------------------------------
         1    5.47483D+00  2.65D+00  4.79D+00  5.15D+02    1.16800D-01

 ** RSPCTL MICROITERATION NUMBER   17

 *** INFO, negative eigenvalues in reduced matrix. Symmetry  1,  triplet       F Dimension of reduced matrix =    36

 GP * SOLUTION vector at frequency     0.11680 a.u.
 after   18 linear transformations is      2.32795040D+04
 INERTIA (POS,ZER,NEG) of reduced matrix is   33    0    3
 Determinant of reduced matrix is -2.75 * 10 **-26.0

       No.  Residual tot.,    conf., and orb.    Bnorm      Frequency 
      ----------------------------------------------------------------
         1    4.13561D+00  3.16D+00  2.66D+00  5.15D+02    1.16800D-01

 ** RSPCTL MICROITERATION NUMBER   18

 *** INFO, negative eigenvalues in reduced matrix. Symmetry  1,  triplet       F Dimension of reduced matrix =    38

 GP * SOLUTION vector at frequency     0.11680 a.u.
 after   19 linear transformations is      2.32906878D+04
 INERTIA (POS,ZER,NEG) of reduced matrix is   35    0    3
 Determinant of reduced matrix is -3.91 * 10 **-27.0

       No.  Residual tot.,    conf., and orb.    Bnorm      Frequency 
      ----------------------------------------------------------------
         1    3.12900D+00  7.38D-01  3.04D+00  5.16D+02    1.16800D-01

 ** RSPCTL MICROITERATION NUMBER   19

 *** INFO, negative eigenvalues in reduced matrix. Symmetry  1,  triplet       F Dimension of reduced matrix =    40

 GP * SOLUTION vector at frequency     0.11680 a.u.
 after   20 linear transformations is      2.33002106D+04
 INERTIA (POS,ZER,NEG) of reduced matrix is   37    0    3
 Determinant of reduced matrix is -1.21 * 10 **-29.0

       No.  Residual tot.,    conf., and orb.    Bnorm      Frequency 
      ----------------------------------------------------------------
         1    1.76673D+00  1.23D+00  1.27D+00  5.17D+02    1.16800D-01

 ** RSPCTL MICROITERATION NUMBER   20

 *** INFO, negative eigenvalues in reduced matrix. Symmetry  1,  triplet       F Dimension of reduced matrix =    42

 GP * SOLUTION vector at frequency     0.11680 a.u.
 after   21 linear transformations is      2.33014618D+04
 INERTIA (POS,ZER,NEG) of reduced matrix is   39    0    3
 Determinant of reduced matrix is -1.68 * 10 **-32.0

       No.  Residual tot.,    conf., and orb.    Bnorm      Frequency 
      ----------------------------------------------------------------
         1    1.38393D+00  1.27D+00  5.60D-01  5.16D+02    1.16800D-01

 ** RSPCTL MICROITERATION NUMBER   21

 *** INFO, negative eigenvalues in reduced matrix. Symmetry  1,  triplet       F Dimension of reduced matrix =    44

 GP * SOLUTION vector at frequency     0.11680 a.u.
 after   22 linear transformations is      2.33032996D+04
 INERTIA (POS,ZER,NEG) of reduced matrix is   41    0    3
 Determinant of reduced matrix is -4.56 * 10 **-33.0

       No.  Residual tot.,    conf., and orb.    Bnorm      Frequency 
      ----------------------------------------------------------------
         1    9.27333D-01  6.56D-01  6.55D-01  5.16D+02    1.16800D-01

 ** RSPCTL MICROITERATION NUMBER   22

 *** INFO, negative eigenvalues in reduced matrix. Symmetry  1,  triplet       F Dimension of reduced matrix =    46

 GP * SOLUTION vector at frequency     0.11680 a.u.
 after   23 linear transformations is      2.33042293D+04
 INERTIA (POS,ZER,NEG) of reduced matrix is   43    0    3
 Determinant of reduced matrix is -6.96 * 10 **-34.0

       No.  Residual tot.,    conf., and orb.    Bnorm      Frequency 
      ----------------------------------------------------------------
         1    6.72877D-01  1.30D-01  6.60D-01  5.16D+02    1.16800D-01

 ** RSPCTL MICROITERATION NUMBER   23

 *** INFO, negative eigenvalues in reduced matrix. Symmetry  1,  triplet       F Dimension of reduced matrix =    48

 GP * SOLUTION vector at frequency     0.11680 a.u.
 after   24 linear transformations is      2.33048967D+04
 INERTIA (POS,ZER,NEG) of reduced matrix is   45    0    3
 Determinant of reduced matrix is -7.64 * 10 **-37.0

       No.  Residual tot.,    conf., and orb.    Bnorm      Frequency 
      ----------------------------------------------------------------
         1    4.91621D-01  2.68D-01  4.12D-01  5.16D+02    1.16800D-01

 *** THE REQUESTED    1 SOLUTION VECTORS CONVERGED

 Convergence of RSP solution vectors, threshold = 1.00D-03
 ---------------------------------------------------------------
 (dimension of paired reduced space:   48)
 RSP solution vector no.    1; norm of residual   9.53D-04

 *** RSPCTL MICROITERATIONS CONVERGED
    YDIPLEN     YDIPLEN      freq1     freq2                Norm
 ---------------------------------------------------------------
                          0.058400  0.058400        515.97310987
  Time used in CRVEC2     is       3 hours 11 minutes  8 seconds


 ----- CALCULATING CONTRIBUTIONS TO SECOND HYPERPOLARIZABILITY -----


   Contribution                Term         Accumulated
 ------------------------------------------------------
 Na T[4] Nb Nc Nd234874874.27907273  234874874.27907273
 Na T[3] Nx Nyz -553358287.18634057 -318483412.90726781
 Na X[3] Ny Nz   -11453412.49722349 -329936825.40449125
 Nx A[3] Ny Nz    -3817804.16574117 -333754629.57023239
 Na X[2] Nyz      22719586.26516404 -311035043.30506837
 Nx A[2] Nyz      23274844.30022806 -287760199.00484031

@ Cubic response function value in a.u. for
@ A operator, symmetry, frequency:   ZDIPLEN    1 -0.058400
@ B operator, symmetry, frequency:   ZDIPLEN    1  0.058400
@ C operator, symmetry, frequency:   ZDIPLEN    1 -0.058400
@ D operator, symmetry, frequency:   ZDIPLEN    1  0.058400

@ << A; B, C, D >>  =  -287760199.00484031



   Contribution                Term         Accumulated
 ------------------------------------------------------
 Na T[4] Nb Nc Nd  6269303.51754231    6269303.51754231
 Na T[3] Nx Nyz  -13932240.08526591   -7662936.56772360
 Na X[3] Ny Nz      410763.35884001   -7252173.20888359
 Nx A[3] Ny Nz      201345.75632327   -7050827.45256032
 Na X[2] Nyz       -179712.80940944   -7230540.26196977
 Nx A[2] Nyz       1907629.42466028   -5322910.83730948

@ Cubic response function value in a.u. for
@ A operator, symmetry, frequency:   XDIPLEN    2 -0.058400
@ B operator, symmetry, frequency:   XDIPLEN    2  0.058400
@ C operator, symmetry, frequency:   ZDIPLEN    1 -0.058400
@ D operator, symmetry, frequency:   ZDIPLEN    1  0.058400

@ << A; B, C, D >>  =    -5322910.83730948



   Contribution                Term         Accumulated
 ------------------------------------------------------
 Na T[4] Nb Nc Nd   -60149.84555952     -60149.84555952
 Na T[3] Nx Nyz     -22160.56385459     -82310.40941410
 Na X[3] Ny Nz      107097.46990424      24787.06049014
 Nx A[3] Ny Nz       59095.07513924      83882.13562938
 Na X[2] Nyz         38418.00667432     122300.14230370
 Nx A[2] Nyz        -61612.33707934      60687.80522436

@ Cubic response function value in a.u. for
@ A operator, symmetry, frequency:   YDIPLEN    3 -0.058400
@ B operator, symmetry, frequency:   YDIPLEN    3  0.058400
@ C operator, symmetry, frequency:   ZDIPLEN    1 -0.058400
@ D operator, symmetry, frequency:   ZDIPLEN    1  0.058400

@ << A; B, C, D >>  =       60687.80522436



   Contribution                Term         Accumulated
 ------------------------------------------------------
 Na T[4] Nb Nc Nd -4002913.09168159   -4002913.09168159
 Na T[3] Nx Nyz   10293975.61243773    6291062.52075614
 Na X[3] Ny Nz      -69884.22490239    6221178.29585375
 Nx A[3] Ny Nz      165952.07502578    6387130.37087953
 Na X[2] Nyz      -2918805.09785830    3468325.27302123
 Nx A[2] Nyz       6957979.84668557   10426305.11970679

@ Cubic response function value in a.u. for
@ A operator, symmetry, frequency:   XDIPLEN    2 -0.058400
@ B operator, symmetry, frequency:   ZDIPLEN    1  0.058400
@ C operator, symmetry, frequency:   XDIPLEN    2 -0.058400
@ D operator, symmetry, frequency:   ZDIPLEN    1  0.058400

@ << A; B, C, D >>  =    10426305.11970679



   Contribution                Term         Accumulated
 ------------------------------------------------------
 Na T[4] Nb Nc Nd   -47026.21062234     -47026.21062234
 Na T[3] Nx Nyz      11300.83647959     -35725.37414275
 Na X[3] Ny Nz       85044.54083609      49319.16669334
 Nx A[3] Ny Nz       47845.85426517      97165.02095850
 Na X[2] Nyz        -62739.53571091      34425.48524760
 Nx A[2] Nyz       -135176.71869780    -100751.23345020

@ Cubic response function value in a.u. for
@ A operator, symmetry, frequency:   YDIPLEN    3 -0.058400
@ B operator, symmetry, frequency:   ZDIPLEN    1  0.058400
@ C operator, symmetry, frequency:   YDIPLEN    3 -0.058400
@ D operator, symmetry, frequency:   ZDIPLEN    1  0.058400

@ << A; B, C, D >>  =     -100751.23345020



   Contribution                Term         Accumulated
 ------------------------------------------------------
 Na T[4] Nb Nc Nd -5562144.24659534   -5562144.24659534
 Na T[3] Nx Nyz   11537606.01687044    5975461.77027510
 Na X[3] Ny Nz      515391.90591745    6490853.67619254
 Nx A[3] Ny Nz      -17449.51468742    6473404.16150512
 Na X[2] Nyz       6837728.60901590   13311132.77052102
 Nx A[2] Nyz      -2945149.39519288   10365983.37532814

@ Cubic response function value in a.u. for
@ A operator, symmetry, frequency:   ZDIPLEN    1 -0.058400
@ B operator, symmetry, frequency:   XDIPLEN    2  0.058400
@ C operator, symmetry, frequency:   ZDIPLEN    1 -0.058400
@ D operator, symmetry, frequency:   XDIPLEN    2  0.058400

@ << A; B, C, D >>  =    10365983.37532814



   Contribution                Term         Accumulated
 ------------------------------------------------------
 Na T[4] Nb Nc Nd  3727923.19835855    3727923.19835855
 Na T[3] Nx Nyz   -2223998.31044136    1503924.88791719
 Na X[3] Ny Nz      222763.79843692    1726688.68635411
 Nx A[3] Ny Nz       74254.59947897    1800943.28583309
 Na X[2] Nyz       -141194.29982266    1659748.98601043
 Nx A[2] Nyz       -213745.46122880    1446003.52478163

@ Cubic response function value in a.u. for
@ A operator, symmetry, frequency:   XDIPLEN    2 -0.058400
@ B operator, symmetry, frequency:   XDIPLEN    2  0.058400
@ C operator, symmetry, frequency:   XDIPLEN    2 -0.058400
@ D operator, symmetry, frequency:   XDIPLEN    2  0.058400

@ << A; B, C, D >>  =     1446003.52478163



   Contribution                Term         Accumulated
 ------------------------------------------------------
 Na T[4] Nb Nc Nd   -13328.02299333     -13328.02299333
 Na T[3] Nx Nyz      -7560.71617597     -20888.73916930
 Na X[3] Ny Nz       23801.55515466       2912.81598536
 Nx A[3] Ny Nz        8155.22639815      11068.04238352
 Na X[2] Nyz        -15973.54161125      -4905.49922774
 Nx A[2] Nyz        -28883.70027376     -33789.19950150

@ Cubic response function value in a.u. for
@ A operator, symmetry, frequency:   YDIPLEN    3 -0.058400
@ B operator, symmetry, frequency:   YDIPLEN    3  0.058400
@ C operator, symmetry, frequency:   XDIPLEN    2 -0.058400
@ D operator, symmetry, frequency:   XDIPLEN    2  0.058400

@ << A; B, C, D >>  =      -33789.19950150



   Contribution                Term         Accumulated
 ------------------------------------------------------
 Na T[4] Nb Nc Nd     8734.13164466       8734.13164466
 Na T[3] Nx Nyz       7355.05448198      16089.18612664
 Na X[3] Ny Nz      -17099.61662364      -1010.43049700
 Nx A[3] Ny Nz       -6596.43489570      -7606.86539269
 Na X[2] Nyz         -2143.70163964      -9750.56703233
 Nx A[2] Nyz          3743.09564279      -6007.47138954

@ Cubic response function value in a.u. for
@ A operator, symmetry, frequency:   YDIPLEN    3 -0.058400
@ B operator, symmetry, frequency:   XDIPLEN    2  0.058400
@ C operator, symmetry, frequency:   YDIPLEN    3 -0.058400
@ D operator, symmetry, frequency:   XDIPLEN    2  0.058400

@ << A; B, C, D >>  =       -6007.47138954



   Contribution                Term         Accumulated
 ------------------------------------------------------
 Na T[4] Nb Nc Nd   -24187.80012896     -24187.80012896
 Na T[3] Nx Nyz     -76466.82507816    -100654.62520712
 Na X[3] Ny Nz       63124.14608652     -37530.47912060
 Nx A[3] Ny Nz        1543.70804237     -35986.77107823
 Na X[2] Nyz        -59287.66201804     -95274.43309627
 Nx A[2] Nyz         -2779.21799960     -98053.65109587

@ Cubic response function value in a.u. for
@ A operator, symmetry, frequency:   ZDIPLEN    1 -0.058400
@ B operator, symmetry, frequency:   YDIPLEN    3  0.058400
@ C operator, symmetry, frequency:   ZDIPLEN    1 -0.058400
@ D operator, symmetry, frequency:   YDIPLEN    3  0.058400

@ << A; B, C, D >>  =      -98053.65109587



   Contribution                Term         Accumulated
 ------------------------------------------------------
 Na T[4] Nb Nc Nd      168.01642200        168.01642200
 Na T[3] Nx Nyz      20081.05623736      20249.07265936
 Na X[3] Ny Nz       -1366.95776438      18882.11489498
 Nx A[3] Ny Nz         440.91009969      19323.02499467
 Na X[2] Nyz        -13850.65315018       5472.37184449
 Nx A[2] Nyz        -11598.15732407      -6125.78547958

@ Cubic response function value in a.u. for
@ A operator, symmetry, frequency:   XDIPLEN    2 -0.058400
@ B operator, symmetry, frequency:   YDIPLEN    3  0.058400
@ C operator, symmetry, frequency:   XDIPLEN    2 -0.058400
@ D operator, symmetry, frequency:   YDIPLEN    3  0.058400

@ << A; B, C, D >>  =       -6125.78547958



   Contribution                Term         Accumulated
 ------------------------------------------------------
 Na T[4] Nb Nc Nd     -535.24138422       -535.24138422
 Na T[3] Nx Nyz       6476.56249625       5941.32111203
 Na X[3] Ny Nz        2505.40982266       8446.73093469
 Nx A[3] Ny Nz         835.13660755       9281.86754224
 Na X[2] Nyz        -25308.64318472     -16026.77564248
 Nx A[2] Nyz        -25453.11275422     -41479.88839670

@ Cubic response function value in a.u. for
@ A operator, symmetry, frequency:   YDIPLEN    3 -0.058400
@ B operator, symmetry, frequency:   YDIPLEN    3  0.058400
@ C operator, symmetry, frequency:   YDIPLEN    3 -0.058400
@ D operator, symmetry, frequency:   YDIPLEN    3  0.058400

@ << A; B, C, D >>  =      -41479.88839670



  Summary of gamma values for a set of frequencies
 -------------------------------------------------

@ B-freq:  0.058400
@ C-freq: -0.058400
@ D-freq:  0.058400

@ gamma(X;X,X,X)   -1446003.5248
@ gamma(X;X,Y,Y)      33789.1995
@ gamma(X;Y,Y,X)      33789.1995
@ gamma(X;Y,X,Y)       6125.7855
@ gamma(X;X,Z,Z)    5322910.8373
@ gamma(X;Z,Z,X)    5322910.8373
@ gamma(X;Z,X,Z)  -10426305.1197
@ gamma(Y;Y,X,X)      33789.1995
@ gamma(Y;X,X,Y)      33789.1995
@ gamma(Y;X,Y,X)       6007.4714
@ gamma(Y;Y,Y,Y)      41479.8884
@ gamma(Y;Y,Z,Z)     -60687.8052
@ gamma(Y;Z,Z,Y)     -60687.8052
@ gamma(Y;Z,Y,Z)     100751.2335
@ gamma(Z;Z,X,X)    5322910.8373
@ gamma(Z;X,X,Z)    5322910.8373
@ gamma(Z;X,Z,X)  -10365983.3753
@ gamma(Z;Z,Y,Y)     -60687.8052
@ gamma(Z;Y,Y,Z)     -60687.8052
@ gamma(Z;Y,Z,Y)      98053.6511
@ gamma(Z;Z,Z,Z)  287760199.0048

@ Averaged gamma parallel to the applied field is  57311314.978540

  Total CPU  time used in RESPONSE:   7 hours 56 minutes 57 seconds
  Total wall time used in RESPONSE:   7 hours 57 minutes  4 seconds


                   .-------------------------------------------.
                   | End of Dynamic Property Section (RESPONS) |
                   `-------------------------------------------'

  Total CPU  time used in DALTON:  10 hours 21 minutes  3 seconds
  Total wall time used in DALTON:  10 hours 21 minutes 14 seconds

 
     Date and time (Linux)  : Tue Feb  4 12:44:56 2020
     Host name              : Lab2-333-NPs                            
