

     ************************************************************************
     *************** Dalton - An Electronic Structure Program ***************
     ************************************************************************

    This is output from DALTON release Dalton2018.1 (2019)
         ( Web site: http://daltonprogram.org )

   ----------------------------------------------------------------------------

    NOTE:
     
    Dalton is an experimental code for the evaluation of molecular
    properties using (MC)SCF, DFT, CI, and CC wave functions.
    The authors accept no responsibility for the performance of
    the code or for the correctness of the results.
     
    The code (in whole or part) is provided under a licence and
    is not to be reproduced for further distribution without
    the written permission of the authors or their representatives.
     
    See the home page "http://daltonprogram.org" for further information.
     
    If results obtained with this code are published,
    the appropriate citations would be both of:
     
       K. Aidas, C. Angeli, K. L. Bak, V. Bakken, R. Bast,
       L. Boman, O. Christiansen, R. Cimiraglia, S. Coriani,
       P. Dahle, E. K. Dalskov, U. Ekstroem,
       T. Enevoldsen, J. J. Eriksen, P. Ettenhuber, B. Fernandez,
       L. Ferrighi, H. Fliegl, L. Frediani, K. Hald, A. Halkier,
       C. Haettig, H. Heiberg, T. Helgaker, A. C. Hennum,
       H. Hettema, E. Hjertenaes, S. Hoest, I.-M. Hoeyvik,
       M. F. Iozzi, B. Jansik, H. J. Aa. Jensen, D. Jonsson,
       P. Joergensen, J. Kauczor, S. Kirpekar,
       T. Kjaergaard, W. Klopper, S. Knecht, R. Kobayashi, H. Koch,
       J. Kongsted, A. Krapp, K. Kristensen, A. Ligabue,
       O. B. Lutnaes, J. I. Melo, K. V. Mikkelsen, R. H. Myhre,
       C. Neiss, C. B. Nielsen, P. Norman, J. Olsen,
       J. M. H. Olsen, A. Osted, M. J. Packer, F. Pawlowski,
       T. B. Pedersen, P. F. Provasi, S. Reine, Z. Rinkevicius,
       T. A. Ruden, K. Ruud, V. Rybkin, P. Salek, C. C. M. Samson,
       A. Sanchez de Meras, T. Saue, S. P. A. Sauer,
       B. Schimmelpfennig, K. Sneskov, A. H. Steindal,
       K. O. Sylvester-Hvid, P. R. Taylor, A. M. Teale,
       E. I. Tellgren, D. P. Tew, A. J. Thorvaldsen, L. Thoegersen,
       O. Vahtras, M. A. Watson, D. J. D. Wilson, M. Ziolkowski
       and H. Agren,
       "The Dalton quantum chemistry program system",
       WIREs Comput. Mol. Sci. 2014, 4:269–284 (doi: 10.1002/wcms.1172)
     
    and
     
       Dalton, a molecular electronic structure program,
       Release Dalton2018.1 (2019), see http://daltonprogram.org
   ----------------------------------------------------------------------------

    Authors in alphabetical order (major contribution(s) in parenthesis):

  Kestutis Aidas,           Vilnius University,           Lithuania   (QM/MM)
  Celestino Angeli,         University of Ferrara,        Italy       (NEVPT2)
  Keld L. Bak,              UNI-C,                        Denmark     (AOSOPPA, non-adiabatic coupling, magnetic properties)
  Vebjoern Bakken,          University of Oslo,           Norway      (DALTON; geometry optimizer, symmetry detection)
  Radovan Bast,             UiT The Arctic U. of Norway,  Norway      (DALTON installation and execution frameworks)
  Pablo Baudin,             University of Valencia,       Spain       (Cholesky excitation energies)
  Linus Boman,              NTNU,                         Norway      (Cholesky decomposition and subsystems)
  Ove Christiansen,         Aarhus University,            Denmark     (CC module)
  Renzo Cimiraglia,         University of Ferrara,        Italy       (NEVPT2)
  Sonia Coriani,            Technical Univ. of Denmark,   Denmark     (CC module, MCD in RESPONS)
  Janusz Cukras,            University of Trieste,        Italy       (MChD in RESPONS)
  Paal Dahle,               University of Oslo,           Norway      (Parallelization)
  Erik K. Dalskov,          UNI-C,                        Denmark     (SOPPA)
  Thomas Enevoldsen,        Univ. of Southern Denmark,    Denmark     (SOPPA)
  Janus J. Eriksen,         Aarhus University,            Denmark     (Polarizable embedding model, TDA)
  Rasmus Faber,             University of Copenhagen,     Denmark     (Vib.avg. NMR with SOPPA, parallel AO-SOPPA)
  Tobias Fahleson,          KTH Stockholm,                Sweden      (Damped cubic response)
  Berta Fernandez,          U. of Santiago de Compostela, Spain       (doublet spin, ESR in RESPONS)
  Lara Ferrighi,            Aarhus University,            Denmark     (PCM Cubic response)
  Heike Fliegl,             University of Oslo,           Norway      (CCSD(R12))
  Luca Frediani,            UiT The Arctic U. of Norway,  Norway      (PCM)
  Bin Gao,                  UiT The Arctic U. of Norway,  Norway      (Gen1Int library)
  Christof Haettig,         Ruhr-University Bochum,       Germany     (CC module)
  Kasper Hald,              Aarhus University,            Denmark     (CC module)
  Asger Halkier,            Aarhus University,            Denmark     (CC module)
  Frederik Beyer Hansen,    University of Copenhagen,     Denmark     (Parallel AO-SOPPA)
  Erik D. Hedegaard,        Univ. of Southern Denmark,    Denmark     (Polarizable embedding model, QM/MM)
  Hanne Heiberg,            University of Oslo,           Norway      (geometry analysis, selected one-electron integrals)
  Trygve Helgaker,          University of Oslo,           Norway      (DALTON; ABACUS, ERI, DFT modules, London, and much more)
  Alf Christian Hennum,     University of Oslo,           Norway      (Parity violation)
  Hinne Hettema,            University of Auckland,       New Zealand (quadratic response in RESPONS; SIRIUS supersymmetry)
  Eirik Hjertenaes,         NTNU,                         Norway      (Cholesky decomposition)
  Pi A. B. Haase,           University of Copenhagen,     Denmark     (Triplet AO-SOPPA)
  Maria Francesca Iozzi,    University of Oslo,           Norway      (RPA)
  Christoph Jacob           TU Braunschweig               Germany     (Frozen density embedding model)
  Brano Jansik              Technical Univ. of Ostrava    Czech Rep.  (DFT cubic response)
  Hans Joergen Aa. Jensen,  Univ. of Southern Denmark,    Denmark     (DALTON; SIRIUS, RESPONS, ABACUS modules, London, and much more)
  Dan Jonsson,              UiT The Arctic U. of Norway,  Norway      (cubic response in RESPONS module)
  Poul Joergensen,          Aarhus University,            Denmark     (RESPONS, ABACUS, and CC modules)
  Maciej Kaminski,          University of Warsaw,         Poland      (CPPh in RESPONS)
  Joanna Kauczor,           Linkoeping University,        Sweden      (Complex polarization propagator (CPP) module)
  Sheela Kirpekar,          Univ. of Southern Denmark,    Denmark     (Mass-velocity & Darwin integrals)
  Wim Klopper,              KIT Karlsruhe,                Germany     (R12 code in CC, SIRIUS, and ABACUS modules)
  Stefan Knecht,            ETH Zurich,                   Switzerland (Parallel CI and MCSCF)
  Rika Kobayashi,           Australian National Univ.,    Australia   (DIIS in CC, London in MCSCF)
  Henrik Koch,              NTNU,                         Norway      (CC module, Cholesky decomposition)
  Jacob Kongsted,           Univ. of Southern Denmark,    Denmark     (Polarizable embedding model, QM/MM)
  Andrea Ligabue,           University of Modena,         Italy       (CTOCD, AOSOPPA)
  Nanna H. List             Univ. of Southern Denmark,    Denmark     (Polarizable embedding model)
  Ola B. Lutnaes,           University of Oslo,           Norway      (DFT Hessian)
  Juan I. Melo,             University of Buenos Aires,   Argentina   (LRESC, Relativistic Effects on NMR Shieldings)
  Kurt V. Mikkelsen,        University of Copenhagen,     Denmark     (MC-SCRF and QM/MM)
  Rolf H. Myhre,            NTNU,                         Norway      (Subsystems and CC3)
  Christian Neiss,          Univ. Erlangen-Nuernberg,     Germany     (CCSD(R12))
  Christian B. Nielsen,     University of Copenhagen,     Denmark     (QM/MM)
  Patrick Norman,           KTH Stockholm,                Sweden      (Cubic response and complex frequency response in RESPONS)
  Jeppe Olsen,              Aarhus University,            Denmark     (SIRIUS CI/density modules)
  Jogvan Magnus H. Olsen,   Univ. of Southern Denmark,    Denmark     (Polarizable embedding model, QM/MM)
  Anders Osted,             Copenhagen University,        Denmark     (QM/MM)
  Martin J. Packer,         University of Sheffield,      UK          (SOPPA)
  Filip Pawlowski,          Kazimierz Wielki University,  Poland      (CC3)
  Morten N. Pedersen,       Univ. of Southern Denmark,    Denmark     (Polarizable embedding model)
  Thomas B. Pedersen,       University of Oslo,           Norway      (Cholesky decomposition)
  Patricio F. Provasi,      University of Northeastern,   Argentina   (Analysis of coupling constants in localized orbitals)
  Zilvinas Rinkevicius,     KTH Stockholm,                Sweden      (open-shell DFT, ESR)
  Elias Rudberg,            KTH Stockholm,                Sweden      (DFT grid and basis info)
  Torgeir A. Ruden,         University of Oslo,           Norway      (Numerical derivatives in ABACUS)
  Kenneth Ruud,             UiT The Arctic U. of Norway,  Norway      (DALTON; ABACUS magnetic properties and much more)
  Pawel Salek,              KTH Stockholm,                Sweden      (DALTON; DFT code)
  Claire C. M. Samson       University of Karlsruhe       Germany     (Boys localization, r12 integrals in ERI)
  Alfredo Sanchez de Meras, University of Valencia,       Spain       (CC module, Cholesky decomposition)
  Trond Saue,               Paul Sabatier University,     France      (direct Fock matrix construction)
  Stephan P. A. Sauer,      University of Copenhagen,     Denmark     (SOPPA(CCSD), SOPPA prop., AOSOPPA, vibrational g-factors)
  Andre S. P. Gomes,        CNRS/Universite de Lille,     France      (Frozen density embedding model)
  Bernd Schimmelpfennig,    Forschungszentrum Karlsruhe,  Germany     (AMFI module)
  Kristian Sneskov,         Aarhus University,            Denmark     (Polarizable embedding model, QM/MM)
  Arnfinn H. Steindal,      UiT The Arctic U. of Norway,  Norway      (parallel QM/MM, Polarizable embedding model)
  Casper Steinmann,         Univ. of Southern Denmark,    Denmark     (QFIT, Polarizable embedding model)
  K. O. Sylvester-Hvid,     University of Copenhagen,     Denmark     (MC-SCRF)
  Peter R. Taylor,          VLSCI/Univ. of Melbourne,     Australia   (Symmetry handling ABACUS, integral transformation)
  Andrew M. Teale,          University of Nottingham,     England     (DFT-AC, DFT-D)
  David P. Tew,             University of Bristol,        England     (CCSD(R12))
  Olav Vahtras,             KTH Stockholm,                Sweden      (triplet response, spin-orbit, ESR, TDDFT, open-shell DFT)
  Lucas Visscher,           Vrije Universiteit Amsterdam, Netherlands (Frozen density embedding model)
  David J. Wilson,          La Trobe University,          Australia   (DFT Hessian and DFT magnetizabilities)
  Hans Agren,               KTH Stockholm,                Sweden      (SIRIUS module, RESPONS, MC-SCRF solvation model)
 --------------------------------------------------------------------------------

     Date and time (Linux)  : Thu Feb 13 01:02:40 2020
     Host name              : Lab2-333-NPs                            

 * Work memory size             :  1024000000 =  7.629 gigabytes.

 * Directories for basis set searches:
   1) /home/lab333/dalton/build_2018_atlas
   2) /home/lab333/dalton/build_2018_atlas/basis


Compilation information
-----------------------

 Who compiled             | lab333
 Host                     | Lab2-333-NPs
 System                   | Linux-4.4.0-43-Microsoft
 CMake generator          | Unix Makefiles
 Processor                | x86_64
 64-bit integers          | OFF
 MPI                      | OFF
 Fortran compiler         | /usr/bin/gfortran
 Fortran compiler version | GNU Fortran (Ubuntu 7.3.0-27ubuntu1~18.04) 7.3.0
 C compiler               | /usr/bin/gcc
 C compiler version       | gcc (Ubuntu 7.3.0-27ubuntu1~18.04) 7.3.0
 C++ compiler             | /usr/bin/g++
 C++ compiler version     | g++ (Ubuntu 7.3.0-27ubuntu1~18.04) 7.3.0
 BLAS                     | /usr/lib/x86_64-linux-gnu/libf77blas.so;/usr/lib/x
                          | 86_64-linux-gnu/libcblas.so;/usr/lib/x86_64-linux-
                          | gnu/libatlas.so
 LAPACK                   | /usr/lib/x86_64-linux-gnu/libatlas.so;/usr/lib/x86
                          | _64-linux-gnu/atlas/liblapack.so
 Static linking           | OFF
 Last Git revision        | da625bf48c74028e805616daee31bc5d76b3a20d
 Git branch               | (HEAD detached at Dalton2018.1)
 Configuration time       | 2019-01-18 10:20:51.437510


   Content of the .dal input file
 ----------------------------------

**DALTON INPUT
.RUN RESPONSE
.DIRECT
**WAVE FUNCTIONS
.HF
.MP2
.MCSCF
*CONFIGURATION INPUT
.SPIN MULTIPLICITY
3
.SYMMETRY
1
.INACTIVE ORBITALS
15 10 2 0
.CAS SPACE
1 1 2 3
.ELECTRONS
10
*ORBITAL INPUT
.MOSTART
.HUCKEL
*OPTIMIZATION
.DETERMINANTS
.STATE
1
*CI VECTOR
.PLUS COMBINATIONS
**RESPONSE
*CUBIC
.DIPLEN
.BFREQ
1
0.0584
.CFREQ
1
-0.0584
.DFREQ
1
0.0584
**END OF DALTON INPUT


   Content of the .mol file
 ----------------------------

BASIS
aug-cc-pCVDZ
 nitrobenzene
 Generated by the Dalton Input File Plugin for Avogadro
Atomtypes=4 Angstrom Generators=2 X Y
Charge=6.0 Atoms=4
C        0.0000000000            0.0000000000           -0.0265759623
C       -1.2190534920            0.0000000000           -0.6979856948
C       -1.2105095870            0.0000000000           -2.0897394457
C        0.0000000000            0.0000000000           -2.7841484631
Charge=7.0 Atoms=1
N        0.0000000000            0.0000000000            1.4549291696
Charge=8.0 Atoms=1
O       1.0325571060506837            0.0            2.1136177656984163
Charge=1.0 Atoms=3
H       -2.1410602955            0.0000000000           -0.1327964319
H       -2.1492827751            0.0000000000           -2.6311811056
H        0.0000000000            0.0000000000           -3.8683953478


       *******************************************************************
       *********** Output from DALTON general input processing ***********
       *******************************************************************

 --------------------------------------------------------------------------------
   Overall default print level:    0
   Print level for DALTON.STAT:    1

    AO-direct calculation (in sections where implemented)
    HERMIT 1- and 2-electron integral sections will be executed
    "Old" integral transformation used (limited to max 255 basis functions)
    Wave function sections will be executed (SIRIUS module)
    Dynamic molecular response properties section will be executed (RESPONSE module)
 --------------------------------------------------------------------------------


   ****************************************************************************
   *************** Output of molecule and basis set information ***************
   ****************************************************************************


    The two title cards from your ".mol" input:
    ------------------------------------------------------------------------
 1:  nitrobenzene                                                           
 2:  Generated by the Dalton Input File Plugin for Avogadro                 
    ------------------------------------------------------------------------

  Coordinates are entered in Angstrom and converted to atomic units.
          - Conversion factor : 1 bohr = 0.52917721 A

  Atomic type no.    1
  --------------------
  Nuclear charge:   6.00000
  Number of symmetry independent centers:    4
  Number of basis sets to read;    2
  Basis set file used for this atomic type with Z =   6 :
     "/home/lab333/dalton/build_2018_atlas/basis/aug-cc-pCVDZ"

  Atomic type no.    2
  --------------------
  Nuclear charge:   7.00000
  Number of symmetry independent centers:    1
  Number of basis sets to read;    2
  Basis set file used for this atomic type with Z =   7 :
     "/home/lab333/dalton/build_2018_atlas/basis/aug-cc-pCVDZ"

  Atomic type no.    3
  --------------------
  Nuclear charge:   8.00000
  Number of symmetry independent centers:    1
  Number of basis sets to read;    2
  Basis set file used for this atomic type with Z =   8 :
     "/home/lab333/dalton/build_2018_atlas/basis/aug-cc-pCVDZ"

  Atomic type no.    4
  --------------------
  Nuclear charge:   1.00000
  Number of symmetry independent centers:    3
  Number of basis sets to read;    2
  Basis set file used for this atomic type with Z =   1 :
     "/home/lab333/dalton/build_2018_atlas/basis/aug-cc-pCVDZ"


                         SYMGRP: Point group information
                         -------------------------------

@    Point group: C2v

@  * The irrep name for each symmetry:    1: A1     2: B1     3: B2     4: A2 

   * The point group was generated by:

      Reflection in the yz-plane
      Reflection in the xz-plane

   * Group multiplication table

        |  E   C2z  Oxz  Oyz
   -----+--------------------
     E  |  E   C2z  Oxz  Oyz
    C2z | C2z   E   Oyz  Oxz
    Oxz | Oxz  Oyz   E   C2z
    Oyz | Oyz  Oxz  C2z   E 

   * Character table

        |  E   C2z  Oxz  Oyz
   -----+--------------------
    A1  |   1    1    1    1
    B1  |   1   -1    1   -1
    B2  |   1   -1   -1    1
    A2  |   1    1   -1   -1

   * Direct product table

        | A1   B1   B2   A2 
   -----+--------------------
    A1  | A1   B1   B2   A2 
    B1  | B1   A1   A2   B2 
    B2  | B2   A2   A1   B1 
    A2  | A2   B2   B1   A1 


                                 Isotopic Masses
                                 ---------------

                           C          12.000000
                           C   _1     12.000000
                           C   _2     12.000000
                           C   _1     12.000000
                           C   _2     12.000000
                           C          12.000000
                           N          14.003074
                           O   _1     15.994915
                           O   _2     15.994915
                           H   _1      1.007825
                           H   _2      1.007825
                           H   _1      1.007825
                           H   _2      1.007825
                           H           1.007825

                       Total mass:   123.032029 amu
                       Natural abundance:  92.716 %

 Center-of-mass coordinates (a.u.):    0.000000    0.000000   -0.339697


  Atoms and basis sets
  --------------------

  Number of atom types :    4
  Total number of atoms:   14

  Basis set used is "aug-cc-pCVDZ" from the basis set library.

  label    atoms   charge   prim   cont     basis
  ----------------------------------------------------------------------
  C           6    6.0000    39    27      [11s6p2d|5s4p2d]                                   
  N           1    7.0000    39    27      [11s6p2d|5s4p2d]                                   
  O           2    8.0000    39    27      [11s6p2d|5s4p2d]                                   
  H           5    1.0000    11     9      [5s2p|3s2p]                                        
  ----------------------------------------------------------------------
  total:     14   64.0000   406   288
  ----------------------------------------------------------------------
  Spherical harmonic basis used.

  Threshold for neglecting AO integrals:  1.00D-12


  Symmetry Coordinates
  --------------------

  Number of coordinates in each symmetry:    14   14    9    5


   Interatomic separations (in Angstrom):
   --------------------------------------

            C           C   _1      C   _2      C   _1      C   _2      C     
            ------      ------      ------      ------      ------      ------
 C     :    0.000000
 C   _1:    1.391719    0.000000
 C   _2:    1.391719    2.438107    0.000000
 C   _1:    2.392065    1.391780    2.799956    0.000000
 C   _2:    2.392065    2.799956    1.391780    2.421019    0.000000
 C     :    2.757573    2.416230    2.416230    1.395542    1.395542    0.000000
 N     :    1.481505    2.474093    2.474093    3.745665    3.745665    4.239078
 O   _1:    2.376258    3.602064    2.817782    4.764406    4.207122    5.005426
 O   _2:    2.376258    2.817782    3.602064    4.207122    4.764406    5.005426
 H   _1:    2.143694    1.081451    3.407316    2.166922    3.881063    3.407904
 H   _2:    2.143694    3.407316    1.081451    3.881063    2.166922    3.407904
 H   _1:    3.376890    2.145360    3.883675    1.083722    3.403140    2.154719
 H   _2:    3.376890    3.883675    2.145360    3.403140    1.083722    2.154719
 H     :    3.841819    3.396703    3.396703    2.151500    2.151500    1.084247

            N           O   _1      O   _2      H   _1      H   _2      H   _1
            ------      ------      ------      ------      ------      ------
 N     :    0.000000
 O   _1:    1.224763    0.000000
 O   _2:    1.224763    2.065114    0.000000
 H   _1:    2.665523    3.888216    2.505026    0.000000
 H   _2:    2.665523    2.505026    3.888216    4.282121    0.000000
 H   _1:    4.616894    5.712900    4.874443    2.498398    4.964773    0.000000
 H   _2:    4.616894    4.874443    5.712900    4.964773    2.498398    4.298566
 H     :    5.323325    6.070474    6.070474    4.305675    4.305675    2.479943

            H   _2      H     
            ------      ------
 H   _2:    0.000000
 H     :    2.479943    0.000000


  Max    interatomic separation is    6.0705 Angstrom (   11.4715 Bohr)
  between atoms   14 and    8, "H     " and "O   _1".

  Min HX interatomic separation is    1.0815 Angstrom (    2.0436 Bohr)

  Min YX interatomic separation is    1.2248 Angstrom (    2.3145 Bohr)


  Bond distances (Angstrom):
  --------------------------

                  atom 1     atom 2       distance
                  ------     ------       --------
  bond distance:  C   _1     C            1.391719
  bond distance:  C   _2     C            1.391719
  bond distance:  C   _1     C   _1       1.391780
  bond distance:  C   _2     C   _2       1.391780
  bond distance:  C          C   _1       1.395542
  bond distance:  C          C   _2       1.395542
  bond distance:  N          C            1.481505
  bond distance:  O   _1     N            1.224763
  bond distance:  O   _2     N            1.224763
  bond distance:  H   _1     C   _1       1.081451
  bond distance:  H   _2     C   _2       1.081451
  bond distance:  H   _1     C   _1       1.083722
  bond distance:  H   _2     C   _2       1.083722
  bond distance:  H          C            1.084247


  Bond angles (degrees):
  ----------------------

                  atom 1     atom 2     atom 3         angle
                  ------     ------     ------         -----
  bond angle:     C   _1     C          C   _2       122.311
  bond angle:     C   _1     C          N            118.844
  bond angle:     C   _2     C          N            118.844
  bond angle:     C          C   _1     C   _1       118.493
  bond angle:     C          C   _1     H   _1       119.647
  bond angle:     C   _1     C   _1     H   _1       121.860
  bond angle:     C          C   _2     C   _2       118.493
  bond angle:     C          C   _2     H   _2       119.647
  bond angle:     C   _2     C   _2     H   _2       121.860
  bond angle:     C   _1     C   _1     C            120.192
  bond angle:     C   _1     C   _1     H   _1       119.623
  bond angle:     C          C   _1     H   _1       120.185
  bond angle:     C   _2     C   _2     C            120.192
  bond angle:     C   _2     C   _2     H   _2       119.623
  bond angle:     C          C   _2     H   _2       120.185
  bond angle:     C   _1     C          C   _2       120.319
  bond angle:     C   _1     C          H            119.841
  bond angle:     C   _2     C          H            119.841
  bond angle:     C          N          O   _1       122.535
  bond angle:     C          N          O   _2       122.535
  bond angle:     O   _1     N          O   _2       114.931




 Principal moments of inertia (u*A**2) and principal axes
 --------------------------------------------------------

   IA     123.492075          0.000000    0.000000    1.000000
   IB     407.175739          1.000000    0.000000    0.000000
   IC     530.667814          0.000000    1.000000    0.000000


 Rotational constants
 --------------------

@    The molecule is planar.

               A                   B                   C

           4092.4003           1241.1815            952.3453 MHz
            0.136508            0.041401            0.031767 cm-1


@  Nuclear repulsion energy :  410.875130999884 Hartree


  Symmetry Orbitals
  -----------------

  Number of orbitals in each symmetry:         115   91   48   34


  Symmetry  A1 ( 1)

    1     C        1s         1
    2     C        1s         2
    3     C        1s         3
    4     C        1s         4
    5     C        1s         5
    6     C        2pz        8
    7     C        2pz       11
    8     C        2pz       14
    9     C        2pz       17
   10     C        3d0       20
   11     C        3d2+      22
   12     C        3d0       25
   13     C        3d2+      27
   14     C        1s        28 +   29
   15     C        1s        30 +   31
   16     C        1s        32 +   33
   17     C        1s        34 +   35
   18     C        1s        36 +   37
   19     C        2px       38 -   39
   20     C        2pz       42 +   43
   21     C        2px       44 -   45
   22     C        2pz       48 +   49
   23     C        2px       50 -   51
   24     C        2pz       54 +   55
   25     C        2px       56 -   57
   26     C        2pz       60 +   61
   27     C        3d0       66 +   67
   28     C        3d1+      68 -   69
   29     C        3d2+      70 +   71
   30     C        3d0       76 +   77
   31     C        3d1+      78 -   79
   32     C        3d2+      80 +   81
   33     C        1s        82 +   83
   34     C        1s        84 +   85
   35     C        1s        86 +   87
   36     C        1s        88 +   89
   37     C        1s        90 +   91
   38     C        2px       92 -   93
   39     C        2pz       96 +   97
   40     C        2px       98 -   99
   41     C        2pz      102 +  103
   42     C        2px      104 -  105
   43     C        2pz      108 +  109
   44     C        2px      110 -  111
   45     C        2pz      114 +  115
   46     C        3d0      120 +  121
   47     C        3d1+     122 -  123
   48     C        3d2+     124 +  125
   49     C        3d0      130 +  131
   50     C        3d1+     132 -  133
   51     C        3d2+     134 +  135
   52     C        1s       136
   53     C        1s       137
   54     C        1s       138
   55     C        1s       139
   56     C        1s       140
   57     C        2pz      143
   58     C        2pz      146
   59     C        2pz      149
   60     C        2pz      152
   61     C        3d0      155
   62     C        3d2+     157
   63     C        3d0      160
   64     C        3d2+     162
   65     N        1s       163
   66     N        1s       164
   67     N        1s       165
   68     N        1s       166
   69     N        1s       167
   70     N        2pz      170
   71     N        2pz      173
   72     N        2pz      176
   73     N        2pz      179
   74     N        3d0      182
   75     N        3d2+     184
   76     N        3d0      187
   77     N        3d2+     189
   78     O        1s       190 +  191
   79     O        1s       192 +  193
   80     O        1s       194 +  195
   81     O        1s       196 +  197
   82     O        1s       198 +  199
   83     O        2px      200 -  201
   84     O        2pz      204 +  205
   85     O        2px      206 -  207
   86     O        2pz      210 +  211
   87     O        2px      212 -  213
   88     O        2pz      216 +  217
   89     O        2px      218 -  219
   90     O        2pz      222 +  223
   91     O        3d0      228 +  229
   92     O        3d1+     230 -  231
   93     O        3d2+     232 +  233
   94     O        3d0      238 +  239
   95     O        3d1+     240 -  241
   96     O        3d2+     242 +  243
   97     H        1s       244 +  245
   98     H        1s       246 +  247
   99     H        1s       248 +  249
  100     H        2px      250 -  251
  101     H        2pz      254 +  255
  102     H        2px      256 -  257
  103     H        2pz      260 +  261
  104     H        1s       262 +  263
  105     H        1s       264 +  265
  106     H        1s       266 +  267
  107     H        2px      268 -  269
  108     H        2pz      272 +  273
  109     H        2px      274 -  275
  110     H        2pz      278 +  279
  111     H        1s       280
  112     H        1s       281
  113     H        1s       282
  114     H        2pz      285
  115     H        2pz      288


  Symmetry  B1 ( 2)

  116     C        2px        6
  117     C        2px        9
  118     C        2px       12
  119     C        2px       15
  120     C        3d1+      21
  121     C        3d1+      26
  122     C        1s        28 -   29
  123     C        1s        30 -   31
  124     C        1s        32 -   33
  125     C        1s        34 -   35
  126     C        1s        36 -   37
  127     C        2px       38 +   39
  128     C        2pz       42 -   43
  129     C        2px       44 +   45
  130     C        2pz       48 -   49
  131     C        2px       50 +   51
  132     C        2pz       54 -   55
  133     C        2px       56 +   57
  134     C        2pz       60 -   61
  135     C        3d0       66 -   67
  136     C        3d1+      68 +   69
  137     C        3d2+      70 -   71
  138     C        3d0       76 -   77
  139     C        3d1+      78 +   79
  140     C        3d2+      80 -   81
  141     C        1s        82 -   83
  142     C        1s        84 -   85
  143     C        1s        86 -   87
  144     C        1s        88 -   89
  145     C        1s        90 -   91
  146     C        2px       92 +   93
  147     C        2pz       96 -   97
  148     C        2px       98 +   99
  149     C        2pz      102 -  103
  150     C        2px      104 +  105
  151     C        2pz      108 -  109
  152     C        2px      110 +  111
  153     C        2pz      114 -  115
  154     C        3d0      120 -  121
  155     C        3d1+     122 +  123
  156     C        3d2+     124 -  125
  157     C        3d0      130 -  131
  158     C        3d1+     132 +  133
  159     C        3d2+     134 -  135
  160     C        2px      141
  161     C        2px      144
  162     C        2px      147
  163     C        2px      150
  164     C        3d1+     156
  165     C        3d1+     161
  166     N        2px      168
  167     N        2px      171
  168     N        2px      174
  169     N        2px      177
  170     N        3d1+     183
  171     N        3d1+     188
  172     O        1s       190 -  191
  173     O        1s       192 -  193
  174     O        1s       194 -  195
  175     O        1s       196 -  197
  176     O        1s       198 -  199
  177     O        2px      200 +  201
  178     O        2pz      204 -  205
  179     O        2px      206 +  207
  180     O        2pz      210 -  211
  181     O        2px      212 +  213
  182     O        2pz      216 -  217
  183     O        2px      218 +  219
  184     O        2pz      222 -  223
  185     O        3d0      228 -  229
  186     O        3d1+     230 +  231
  187     O        3d2+     232 -  233
  188     O        3d0      238 -  239
  189     O        3d1+     240 +  241
  190     O        3d2+     242 -  243
  191     H        1s       244 -  245
  192     H        1s       246 -  247
  193     H        1s       248 -  249
  194     H        2px      250 +  251
  195     H        2pz      254 -  255
  196     H        2px      256 +  257
  197     H        2pz      260 -  261
  198     H        1s       262 -  263
  199     H        1s       264 -  265
  200     H        1s       266 -  267
  201     H        2px      268 +  269
  202     H        2pz      272 -  273
  203     H        2px      274 +  275
  204     H        2pz      278 -  279
  205     H        2px      283
  206     H        2px      286


  Symmetry  B2 ( 3)

  207     C        2py        7
  208     C        2py       10
  209     C        2py       13
  210     C        2py       16
  211     C        3d1-      19
  212     C        3d1-      24
  213     C        2py       40 +   41
  214     C        2py       46 +   47
  215     C        2py       52 +   53
  216     C        2py       58 +   59
  217     C        3d2-      62 -   63
  218     C        3d1-      64 +   65
  219     C        3d2-      72 -   73
  220     C        3d1-      74 +   75
  221     C        2py       94 +   95
  222     C        2py      100 +  101
  223     C        2py      106 +  107
  224     C        2py      112 +  113
  225     C        3d2-     116 -  117
  226     C        3d1-     118 +  119
  227     C        3d2-     126 -  127
  228     C        3d1-     128 +  129
  229     C        2py      142
  230     C        2py      145
  231     C        2py      148
  232     C        2py      151
  233     C        3d1-     154
  234     C        3d1-     159
  235     N        2py      169
  236     N        2py      172
  237     N        2py      175
  238     N        2py      178
  239     N        3d1-     181
  240     N        3d1-     186
  241     O        2py      202 +  203
  242     O        2py      208 +  209
  243     O        2py      214 +  215
  244     O        2py      220 +  221
  245     O        3d2-     224 -  225
  246     O        3d1-     226 +  227
  247     O        3d2-     234 -  235
  248     O        3d1-     236 +  237
  249     H        2py      252 +  253
  250     H        2py      258 +  259
  251     H        2py      270 +  271
  252     H        2py      276 +  277
  253     H        2py      284
  254     H        2py      287


  Symmetry  A2 ( 4)

  255     C        3d2-      18
  256     C        3d2-      23
  257     C        2py       40 -   41
  258     C        2py       46 -   47
  259     C        2py       52 -   53
  260     C        2py       58 -   59
  261     C        3d2-      62 +   63
  262     C        3d1-      64 -   65
  263     C        3d2-      72 +   73
  264     C        3d1-      74 -   75
  265     C        2py       94 -   95
  266     C        2py      100 -  101
  267     C        2py      106 -  107
  268     C        2py      112 -  113
  269     C        3d2-     116 +  117
  270     C        3d1-     118 -  119
  271     C        3d2-     126 +  127
  272     C        3d1-     128 -  129
  273     C        3d2-     153
  274     C        3d2-     158
  275     N        3d2-     180
  276     N        3d2-     185
  277     O        2py      202 -  203
  278     O        2py      208 -  209
  279     O        2py      214 -  215
  280     O        2py      220 -  221
  281     O        3d2-     224 +  225
  282     O        3d1-     226 -  227
  283     O        3d2-     234 +  235
  284     O        3d1-     236 -  237
  285     H        2py      252 -  253
  286     H        2py      258 -  259
  287     H        2py      270 -  271
  288     H        2py      276 -  277

  Symmetries of electric field:  B1 (2)  B2 (3)  A1 (1)

  Symmetries of magnetic field:  B2 (3)  B1 (2)  A2 (4)


                     .---------------------------------------.
                     | Starting in Integral Section (HERMIT) |
                     `---------------------------------------'



 ***************************************************************************************
 ****************** Output from **INTEGRALS input processing (HERMIT) ******************
 ***************************************************************************************


 - Using defaults, no **INTEGRALS input found

 Default print level:        1

 Calculation of one-electron Hamiltonian integrals.

 Center of mass  (bohr):      0.000000000000      0.000000000000     -0.339696891330
 Operator center (bohr):      0.000000000000      0.000000000000      0.000000000000
 Gauge origin    (bohr):      0.000000000000      0.000000000000      0.000000000000
 Dipole origin   (bohr):      0.000000000000      0.000000000000      0.000000000000


     ************************************************************************
     ************************** Output from HERINT **************************
     ************************************************************************



                      Nuclear contribution to dipole moments
                      --------------------------------------

                 au               Debye          C m (/(10**-30)

      z    -29.68950647       -75.46319344      -251.71811842


  Time used in GABGEN     is       0.12 seconds
  Total CPU  time used in HERMIT:   0.42 seconds
  Total wall time used in HERMIT:   0.42 seconds


                        .----------------------------------.
                        | End of Integral Section (HERMIT) |
                        `----------------------------------'



                   .--------------------------------------------.
                   | Starting in Wave Function Section (SIRIUS) |
                   `--------------------------------------------'


 *** Output from Huckel module :

     Using EWMO model:          F
     Using EHT  model:          T
     Number of Huckel orbitals each symmetry:   24   17    6    3

 Huckel EHT eigenvalues for symmetry :  1
          -20.697608     -15.706038     -11.414950     -11.394534     -11.376727
          -11.362592      -1.751062      -1.559516      -1.205892      -0.946223
           -0.818860      -0.770893      -0.648375      -0.592998      -0.501213
           -0.430897      -0.320679      -0.245026      -0.225169      -0.213705
           -0.205835      -0.178723      -0.166479      -0.160465

 Huckel EHT eigenvalues for symmetry :  2
          -20.698767     -11.396466     -11.377851      -1.378532      -1.204113
           -0.881052      -0.647578      -0.558297      -0.526117      -0.481491
           -0.415320      -0.279592      -0.213368      -0.202799      -0.176242
           -0.165401      -0.163252

 Huckel EHT eigenvalues for symmetry :  3
           -0.799583      -0.674962      -0.468076      -0.384239      -0.281682
           -0.236531

 Huckel EHT eigenvalues for symmetry :  4
           -0.588282      -0.460275      -0.288871

 **********************************************************************
 *SIRIUS* a direct, restricted step, second order MCSCF program       *
 **********************************************************************

 
     Date and time (Linux)  : Thu Feb 13 01:02:40 2020
     Host name              : Lab2-333-NPs                            

 Title lines from ".mol" input file:
      nitrobenzene                                                           
      Generated by the Dalton Input File Plugin for Avogadro                 

 Print level on unit LUPRI =   2 is   0
 Print level on unit LUW4  =   2 is   5

@    MC-SCF optimization.

@    Multi-configurational response calculation.
@              Type: complete active space calculation (CAS).

@    This is a combination run starting with
@              a restricted, closed shell Hartree-Fock calculation
@              an MP2 calculation

 Fock matrices are calculated directly without use of integrals on disk.

 Initial molecular orbitals are obtained according to
 ".MOSTART EHT   " input option

     Wave function specification
     ============================
@    Wave function type        --- MC-SCF ---
@    Number of closed shell electrons          54
@    Number of electrons in active shells      10
@    Total charge of the molecule               0

@    Spin multiplicity and 2 M_S                3         2
@    Total number of symmetries                 4 (point group: C2v)
@    Reference state symmetry                   1 (irrep name : A1 )

     Orbital specifications
     ======================
@    Abelian symmetry species          All |    1    2    3    4
@                                          |  A1   B1   B2   A2 
                                       --- |  ---  ---  ---  ---
@    Inactive orbitals                  27 |   15   10    2    0
@    Active orbitals                     7 |    1    1    2    3
@    Secondary orbitals                254 |   99   80   44   31
@    Total number of orbitals          288 |  115   91   48   34
@    Number of basis functions         288 |  115   91   48   34

      ** Automatic occupation of RHF orbitals **

      -- Initial occupation of symmetries is determined from extended Huckel guess.           
      -- Initial occupation of symmetries is :
@    Occupied SCF orbitals              32 |   16   11    3    2

     Optimization information
     ========================
@    Number of determinants                  56
@    Number of orbital rotations           2762
     ------------------------------------------
@    Total number of variables             2818

     Maximum number of macro iterations      25
     Maximum number of micro iterations     600
     Threshold for MCSCF gradient      1.00D-05
     Number of initial trial vectors          1
     Number of initial CI iterations          3
     Number of simultaneous trial vectors     1

@    This calculation converges to the lowest state for the specified symmetry and spin species.

     Maximum number of NEO/NR iterations  24

    INFORMATION: Switched to "new" integral transformation (from 1988 ;-) )
    because more than 255 basis functions.


 ***********************************************
 ***** DIIS acceleration of SCF iterations *****
 ***********************************************

 C1-DIIS algorithm; max error vectors =    8

 Automatic occupation of symmetries with  64 electrons.

 Iter     Total energy    Error norm  Delta(E)    SCF occupation
 -----------------------------------------------------------------------------
   1  Screening settings (-IFTHRS, JTDIIS, DIFDEN, times)   -8    1    T  2.78D+01  2.78D+01
@  1  -432.211084462       6.51D+00  -4.32D+02    16  11   3   2
      Virial theorem: -V/T =      1.998429
@    MULPOP   C       0.36; C   _1  0.26; C   _2  0.26; C   _1  0.25; C   _2  0.25; C       0.37; N       1.28; O   _1 -1.03; O   _2 -1.03; H   _1 -0.20; 
@             H   _2 -0.20; H   _1 -0.18; H   _2 -0.18; H      -0.19; 
   1  Level shift: doubly occupied orbital energies shifted by -2.00D-01
 -----------------------------------------------------------------------------
   2  Screening settings (-IFTHRS, JTDIIS, DIFDEN, times)   -8    2    T  2.82D+01  2.82D+01
@  2  -433.808578047       3.01D+00  -1.60D+00    16  11   3   2
      Virial theorem: -V/T =      2.001432
@    MULPOP   C       1.10; C   _1  0.25; C   _2  0.25; C   _1  0.36; C   _2  0.36; C       0.39; N       0.25; O   _1 -0.50; O   _2 -0.50; H   _1 -0.39; 
@             H   _2 -0.39; H   _1 -0.39; H   _2 -0.39; H      -0.40; 
   2  Level shift: doubly occupied orbital energies shifted by -1.00D-01
 -----------------------------------------------------------------------------
   3  Screening settings (-IFTHRS, JTDIIS, DIFDEN, times)   -8    3    T  2.85D+01  2.85D+01
@  3  -434.197451083       7.35D-01  -3.89D-01    16  11   3   2
      Virial theorem: -V/T =      2.000691
@    MULPOP   C       1.83; C   _1  0.18; C   _2  0.18; C   _1  0.46; C   _2  0.46; C       0.28; N       0.62; O   _1 -0.90; O   _2 -0.90; H   _1 -0.45; 
@             H   _2 -0.45; H   _1 -0.44; H   _2 -0.44; H      -0.44; 
   3  Level shift: doubly occupied orbital energies shifted by -2.50D-02
 -----------------------------------------------------------------------------
   4  Screening settings (-IFTHRS, JTDIIS, DIFDEN, times)   -8    4    T  2.85D+01  2.85D+01
@  4  -434.224318384       1.92D-01  -2.69D-02    16  11   3   2
      Virial theorem: -V/T =      2.002576
@    MULPOP   C       1.95; C   _1  0.13; C   _2  0.13; C   _1  0.51; C   _2  0.51; C       0.29; N       0.45; O   _1 -0.86; O   _2 -0.86; H   _1 -0.44; 
@             H   _2 -0.44; H   _1 -0.45; H   _2 -0.45; H      -0.46; 
   4  Level shift: doubly occupied orbital energies shifted by -1.25D-02
 -----------------------------------------------------------------------------
   5  Screening settings (-IFTHRS, JTDIIS, DIFDEN, times)  -10    5    F  2.91D+01  2.92D+01
@  5  -434.227152021       5.64D-02  -2.83D-03    16  11   3   2
      Virial theorem: -V/T =      2.001985
@    MULPOP   C       1.97; C   _1  0.12; C   _2  0.12; C   _1  0.50; C   _2  0.50; C       0.27; N       0.45; O   _1 -0.87; O   _2 -0.87; H   _1 -0.43; 
@             H   _2 -0.43; H   _1 -0.44; H   _2 -0.44; H      -0.44; 
 -----------------------------------------------------------------------------
   6  Screening settings (-IFTHRS, JTDIIS, DIFDEN, times)  -10    6    T  2.80D+01  2.80D+01
@  6  -434.227497552       1.57D-02  -3.46D-04    16  11   3   2
      Virial theorem: -V/T =      2.001904
@    MULPOP   C       1.99; C   _1  0.11; C   _2  0.11; C   _1  0.50; C   _2  0.50; C       0.27; N       0.43; O   _1 -0.87; O   _2 -0.87; H   _1 -0.43; 
@             H   _2 -0.43; H   _1 -0.44; H   _2 -0.44; H      -0.44; 
 -----------------------------------------------------------------------------
   7  Screening settings (-IFTHRS, JTDIIS, DIFDEN, times)  -13    7    F  2.85D+01  2.85D+01
@  7  -434.227530945       6.20D-03  -3.34D-05    16  11   3   2
      Virial theorem: -V/T =      2.001941
@    MULPOP   C       2.00; C   _1  0.10; C   _2  0.10; C   _1  0.50; C   _2  0.50; C       0.27; N       0.43; O   _1 -0.87; O   _2 -0.87; H   _1 -0.43; 
@             H   _2 -0.43; H   _1 -0.44; H   _2 -0.44; H      -0.44; 
 -----------------------------------------------------------------------------
   8  Screening settings (-IFTHRS, JTDIIS, DIFDEN, times)  -13    8    T  2.84D+01  2.84D+01
@  8  -434.227536050       2.14D-03  -5.10D-06    16  11   3   2
      Virial theorem: -V/T =      2.001929
@    MULPOP   C       2.00; C   _1  0.10; C   _2  0.10; C   _1  0.50; C   _2  0.50; C       0.27; N       0.43; O   _1 -0.87; O   _2 -0.87; H   _1 -0.43; 
@             H   _2 -0.43; H   _1 -0.44; H   _2 -0.44; H      -0.44; 
 -----------------------------------------------------------------------------
   9  Screening settings (-IFTHRS, JTDIIS, DIFDEN, times)  -13    9    T  2.81D+01  2.81D+01
@  9  -434.227536643       7.06D-04  -5.93D-07    16  11   3   2
      Virial theorem: -V/T =      2.001927
@    MULPOP   C       2.00; C   _1  0.10; C   _2  0.10; C   _1  0.50; C   _2  0.50; C       0.27; N       0.42; O   _1 -0.87; O   _2 -0.87; H   _1 -0.43; 
@             H   _2 -0.43; H   _1 -0.44; H   _2 -0.44; H      -0.44; 
 -----------------------------------------------------------------------------
  10  Screening settings (-IFTHRS, JTDIIS, DIFDEN, times)  -13   10    T  2.77D+01  2.77D+01
@ 10  -434.227536711       2.48D-04  -6.82D-08    16  11   3   2
      Virial theorem: -V/T =      2.001928
@    MULPOP   C       2.00; C   _1  0.10; C   _2  0.10; C   _1  0.50; C   _2  0.50; C       0.27; N       0.42; O   _1 -0.87; O   _2 -0.87; H   _1 -0.43; 
@             H   _2 -0.43; H   _1 -0.44; H   _2 -0.44; H      -0.44; 
 -----------------------------------------------------------------------------
  11  Screening settings (-IFTHRS, JTDIIS, DIFDEN, times)  -13   11    T  2.82D+01  2.83D+01
@ 11  -434.227536724       1.01D-04  -1.31D-08    16  11   3   2
      Virial theorem: -V/T =      2.001928
@    MULPOP   C       2.00; C   _1  0.10; C   _2  0.10; C   _1  0.50; C   _2  0.50; C       0.27; N       0.42; O   _1 -0.87; O   _2 -0.87; H   _1 -0.43; 
@             H   _2 -0.43; H   _1 -0.44; H   _2 -0.44; H      -0.44; 
 -----------------------------------------------------------------------------
  12  Screening settings (-IFTHRS, JTDIIS, DIFDEN, times)  -13   12    T  2.83D+01  2.83D+01
@ 12  -434.227536727       4.46D-05  -2.77D-09    16  11   3   2
      Virial theorem: -V/T =      2.001928
@    MULPOP   C       2.00; C   _1  0.10; C   _2  0.10; C   _1  0.50; C   _2  0.50; C       0.27; N       0.42; O   _1 -0.87; O   _2 -0.87; H   _1 -0.43; 
@             H   _2 -0.43; H   _1 -0.44; H   _2 -0.44; H      -0.44; 
 -----------------------------------------------------------------------------
  13  Screening settings (-IFTHRS, JTDIIS, DIFDEN, times)  -13   13    T  2.77D+01  2.77D+01
@ 13  -434.227536727       2.37D-05  -4.44D-10    16  11   3   2
      Virial theorem: -V/T =      2.001928
@    MULPOP   C       2.00; C   _1  0.10; C   _2  0.10; C   _1  0.50; C   _2  0.50; C       0.27; N       0.42; O   _1 -0.87; O   _2 -0.87; H   _1 -0.43; 
@             H   _2 -0.43; H   _1 -0.44; H   _2 -0.44; H      -0.44; 
 -----------------------------------------------------------------------------
  14  Screening settings (-IFTHRS, JTDIIS, DIFDEN, times)  -13   14    T  2.79D+01  2.79D+01
@ 14  -434.227536728       8.04D-06  -1.85D-10    16  11   3   2
      Virial theorem: -V/T =      2.001928
@    MULPOP   C       2.00; C   _1  0.10; C   _2  0.10; C   _1  0.50; C   _2  0.50; C       0.27; N       0.42; O   _1 -0.87; O   _2 -0.87; H   _1 -0.43; 
@             H   _2 -0.43; H   _1 -0.44; H   _2 -0.44; H      -0.44; 
 -----------------------------------------------------------------------------
  15  Screening settings (-IFTHRS, JTDIIS, DIFDEN, times)  -13   15    T  2.78D+01  2.78D+01
@ 15  -434.227536728       2.91D-06  -1.05D-11    16  11   3   2
      Virial theorem: -V/T =      2.001928
@    MULPOP   C       2.00; C   _1  0.10; C   _2  0.10; C   _1  0.50; C   _2  0.50; C       0.27; N       0.42; O   _1 -0.87; O   _2 -0.87; H   _1 -0.43; 
@             H   _2 -0.43; H   _1 -0.44; H   _2 -0.44; H      -0.44; 
 -----------------------------------------------------------------------------
  16  Screening settings (-IFTHRS, JTDIIS, DIFDEN, times)  -13   16    T  2.75D+01  2.75D+01
@ 16  -434.227536728       1.31D-06  -1.09D-11    16  11   3   2
      Virial theorem: -V/T =      2.001928
@    MULPOP   C       2.00; C   _1  0.10; C   _2  0.10; C   _1  0.50; C   _2  0.50; C       0.27; N       0.42; O   _1 -0.87; O   _2 -0.87; H   _1 -0.43; 
@             H   _2 -0.43; H   _1 -0.44; H   _2 -0.44; H      -0.44; 
 -----------------------------------------------------------------------------
  17  Screening settings (-IFTHRS, JTDIIS, DIFDEN, times)  -13   17    T  2.77D+01  2.77D+01
@ 17  -434.227536728       5.20D-07  -5.46D-12    16  11   3   2

@ *** DIIS converged in  17 iterations !
@     Converged SCF energy, gradient:   -434.227536727617    5.20D-07
    - total time used in SIRFCK :              0.00 seconds

 --- Writing SIRIFC interface file

 CPU and wall time for SCF :     478.656     478.701


 ----- Output from SIRIUS MP2 module -----

 Reference: H.J.Aa.Jensen, P.Jorgensen, H.Agren, and J.Olsen,
            J. Chem. Phys. 88, 3834 (1988); 89, 5354 (1988)

 Checking that the closed shell orbitals are canonical Hartree-Fock orbitals

    Number of electrons  :   64
    Closed shell orbitals:   16   11    3    2

 Generating Fock matrix

 Hartree-Fock electronic energy:        -845.102667727487
 Hartree-Fock total      energy:        -434.227536727603

 Hartree-Fock orbital energies, symmetry 1 ( A1 ),   16 occupied SCF orbitals

       -20.60177903   -15.85593491   -11.32893277   -11.29040261   -11.28659119
       -11.27869940    -1.61178908    -1.20901590    -1.10279322    -0.96808442
        -0.83224759    -0.78014536    -0.71547031    -0.65632535    -0.56251976
        -0.50478733     0.02513897     0.04341085     0.06195092     0.10373746
         0.13006844     0.13395685     0.14919961     0.15651186     0.17282844
         0.18242085     0.21179660     0.25722503     0.28865089     0.29724118
         0.31730841     0.33437211     0.34722068     0.35098263     0.37042860
         0.39624337     0.41176921     0.42363291     0.45305474     0.48294104
         0.52263962     0.55848747     0.57454244     0.60667985     0.63051768
         0.65015808     0.65627616     0.67367717     0.72476623     0.73889643
         0.74197920     0.83327031     0.88713889     0.93827534     0.95142824
         0.96671530     1.00300718     1.07010133     1.08301297     1.13397059
         1.26496119     1.35629431     1.37229065     1.45094595     1.48891502
         1.50827428     1.53569210     1.56322597     1.57502683     1.60584639
         1.67347896     1.71024603     1.74341165     1.78372979     1.86969608
         1.93305673     1.94888717     2.00484075     2.02367521     2.14271237
         2.19480637     2.23675019     2.30033712     2.36405632     2.41876583
         2.44525566     2.53748037     2.67712653     2.75163052     2.81441580
         2.88502312     2.94100001     3.03397363     3.13909024     3.26774586
         3.40219248     3.74754598     4.03403976     4.06592573     4.23539826
        19.80578354    20.32867979    20.45067430    20.61490489    23.34799771
        23.41458140    23.43444174    23.81589898    23.91175418    24.11791436
        27.05955318    31.29300397    35.74726407    39.66913860    39.77399503

 Hartree-Fock orbital energies, symmetry 2 ( B1 ),   11 occupied SCF orbitals

       -20.60184215   -11.29043987   -11.27880110    -1.38030518    -1.06092235
        -0.87286000    -0.72067332    -0.66042036    -0.63048113    -0.53719453
        -0.47289865     0.03493695     0.05981726     0.12937035     0.13191320
         0.15215786     0.17482351     0.18262387     0.21382053     0.26181284
         0.28804259     0.31199951     0.33374168     0.35836427     0.36645890
         0.39221646     0.42015760     0.43627481     0.45117958     0.56420700
         0.57249512     0.58402121     0.64552202     0.65870041     0.67567397
         0.69442218     0.75510533     0.76192021     0.82574097     0.84359817
         0.86028826     0.91638525     1.01806289     1.14402712     1.20325627
         1.24350462     1.34317640     1.38605028     1.40234447     1.48218343
         1.57407399     1.58296717     1.61920112     1.63632345     1.69723067
         1.75496886     1.76610330     1.78948550     1.88098009     1.92638071
         2.01075160     2.08327219     2.23246149     2.26411799     2.33770278
         2.34677747     2.38382226     2.51094435     2.58259216     2.76201139
         2.89375084     2.93912177     3.11146776     3.30280548     3.36013668
         3.41157145     3.74628918     3.83068394     4.21709500    20.28957060
        20.46962907    22.88965573    23.33092373    23.37806611    23.93510324
        24.11552988    24.30255522    31.42950273    35.60333067    39.66013162
        40.10069567

 Hartree-Fock orbital energies, symmetry 3 ( B2 ),    3 occupied SCF orbitals

        -0.71489517    -0.54246311    -0.38378995     0.03178827     0.10455765
         0.12483808     0.13692085     0.18256769     0.19066985     0.24835679
         0.31472366     0.33924643     0.37637006     0.44386874     0.53138674
         0.58417544     0.64089840     0.71153403     0.78661098     0.84477511
         0.86702872     0.91737601     0.92224804     0.98702390     1.14006883
         1.25582224     1.28673097     1.46850319     1.47536761     1.60938009
         1.66964192     1.70259191     1.82741336     1.89694038     1.98648112
         2.07780788     2.17105116     2.29456627     2.54230894     2.67390988
         3.65912456     3.82343218    22.53779525    22.68657813    22.82250476
        23.02095551    30.56031471    39.42539905

 Hartree-Fock orbital energies, symmetry 4 ( A2 ),    2 occupied SCF orbitals

        -0.44234662    -0.37437813     0.08178526     0.12951184     0.18432582
         0.29942128     0.41050253     0.48836698     0.54235842     0.65406794
         0.73259083     0.89203704     0.89582538     0.93863532     1.04271368
         1.07995786     1.21198751     1.25653042     1.34931643     1.47823801
         1.66703046     1.68442085     1.85746434     1.97767432     2.11129584
         2.20283197     2.34837993     2.47944278     2.60051496     3.66645091
         3.97762121    22.68701594    22.85330236    39.49805451

    E(LUMO) :     0.02513897   (in symmetry 1)
  - E(HOMO) :    -0.37437813   (in symmetry 4)
  --------------------------
    gap     :     0.39951710

---> (Re)generating AOTWOINT


     ************************************************************************
     ************************** Output from HERINT **************************
     ************************************************************************


 Threshold for neglecting two-electron integrals:  1.00D-12
 HERMIT - Number of two-electron integrals written:   202828682 ( 23.4% )
 HERMIT - Megabytes written:                           3096.211

  Time used in TWOINT     is      39.12 seconds

 2-el. integral transformation level 5: Total CPU and WALL times (sec)     405.375     406.893

 MP2 move   0.993710 electrons to unoccupied HF orbitals


@   Hartree-Fock total energy   :          -434.2275367276
@   + MP2 contribution          :            -1.7248673876
@   = MP2 second order energy   :          -435.9524041152

 Natural orbital occupation numbers, symmetry 1 (irrep A1 )
 Sum =    32.00639542; RHF =    32.00000000; Difference =     0.00639542

         1.99929051     1.99907562     1.99876146     1.99875641     1.99875164
         1.99874747     1.98704827     1.98415362     1.97949211     1.97233210
         1.96901743     1.96825032     1.96574903     1.96218713     1.95510372
         1.94596408     0.04025010     0.03578748     0.02540196     0.02379797
         0.01926930     0.01861583     0.01725477     0.01640925     0.01374906
         0.01274952     0.01188430     0.00981770     0.00853978     0.00782712
         0.00761639     0.00671115     0.00568611     0.00454627     0.00307723
         0.00295496     0.00273779     0.00263581     0.00222766     0.00202228
         0.00185028     0.00166744     0.00159752     0.00131165     0.00120728
         0.00117309     0.00105885     0.00095997     0.00071229     0.00065003
         0.00061058     0.00053973     0.00049675     0.00045397     0.00044030
         0.00041496     0.00041016     0.00038442     0.00037786     0.00035508
         0.00034397     0.00032628     0.00031517     0.00029641     0.00026668
         0.00025570     0.00022771     0.00022481     0.00020430     0.00019529
         0.00018635     0.00018540     0.00017624     0.00017114     0.00016836
         0.00016156     0.00015550     0.00015141     0.00014007     0.00013265
         0.00012724     0.00012441     0.00012200     0.00011258     0.00010245
         0.00009408     0.00007747     0.00007049     0.00006351     0.00005678
         0.00005227     0.00004184     0.00003399     0.00002748     0.00002198
         0.00001654     0.00001468     0.00001161     0.00001107     0.00000938
         0.00000865     0.00000829     0.00000707     0.00000320     0.00000294
         0.00000190     0.00000113     0.00000056     0.00000034     0.00000019
         0.00000015    -0.00000001    -0.00000010    -0.00000049    -0.00003813

 Natural orbital occupation numbers, symmetry 2 (irrep B1 )
 Sum =    21.95504808; RHF =    22.00000000; Difference =    -0.04495192

         1.99929037     1.99875724     1.99875098     1.98388272     1.98004188
         1.97275136     1.96238980     1.96045201     1.95492292     1.95435280
         1.94683253     0.03961836     0.02536147     0.02377349     0.01938688
         0.01658195     0.01591885     0.01523192     0.01136157     0.01038920
         0.00908287     0.00756883     0.00580572     0.00535016     0.00517975
         0.00366182     0.00311558     0.00278415     0.00241618     0.00212528
         0.00174025     0.00162025     0.00152351     0.00131496     0.00119365
         0.00102951     0.00097609     0.00069267     0.00063859     0.00056256
         0.00048361     0.00043922     0.00042127     0.00037190     0.00035239
         0.00033387     0.00029774     0.00028715     0.00026808     0.00026093
         0.00023933     0.00021044     0.00019754     0.00018811     0.00018256
         0.00017673     0.00016920     0.00016912     0.00016003     0.00015390
         0.00014256     0.00013347     0.00012856     0.00012543     0.00011813
         0.00011297     0.00009378     0.00009035     0.00006989     0.00005013
         0.00004463     0.00003618     0.00002996     0.00002892     0.00002182
         0.00001546     0.00001378     0.00001128     0.00001058     0.00000822
         0.00000466     0.00000383     0.00000169     0.00000122     0.00000062
         0.00000029     0.00000013    -0.00000000    -0.00000024    -0.00000069
        -0.00004336

 Natural orbital occupation numbers, symmetry 3 (irrep B2 )
 Sum =     6.07792338; RHF =     6.00000000; Difference =     0.07792338

         1.95004467     1.94423880     1.90934688     0.10216768     0.06750404
         0.02959058     0.01045400     0.01026659     0.00869235     0.00804755
         0.00622738     0.00532576     0.00450225     0.00392952     0.00342078
         0.00304378     0.00152481     0.00142974     0.00098517     0.00087833
         0.00085471     0.00065823     0.00061166     0.00049816     0.00046985
         0.00041847     0.00033424     0.00028834     0.00025343     0.00023097
         0.00019974     0.00019576     0.00018973     0.00017825     0.00015179
         0.00013094     0.00012200     0.00011025     0.00009968     0.00008276
         0.00007886     0.00006330     0.00003606     0.00002045     0.00001044
         0.00000843     0.00000490     0.00000129

 Natural orbital occupation numbers, symmetry 4 (irrep A2 )
 Sum =     3.96063312; RHF =     4.00000000; Difference =    -0.03936688

         1.91629389     1.90844437     0.06635361     0.01466511     0.01036470
         0.00933564     0.00787295     0.00569723     0.00496311     0.00404074
         0.00358066     0.00153551     0.00123344     0.00093272     0.00077563
         0.00072613     0.00066651     0.00056065     0.00040459     0.00036919
         0.00034044     0.00029083     0.00021677     0.00019686     0.00016529
         0.00013151     0.00011676     0.00010431     0.00009255     0.00006925
         0.00004963     0.00002039     0.00001729     0.00000487

 Time used for MP2 natural orbitals :     437.344 CPU seconds,     438.857 wall seconds.

 CPU and wall time for MP2 :     437.344     438.857


        SIRIUS MCSCF optimization (SIROPT)
 ================================================


 Fock matrix screening setting for SIRCNO: IFTHRS =    9


 ----- Output from SIRIUS CI module (CICTL) -----




 2-el. integral transformation level 0: Total CPU and WALL times (sec)      98.094      98.125


 --- SIRCI.CIST1: plus combination of all degenerate
                 configurations is used as start vectors.


 (CIST1) 8 lowest diagonal elements:

 Element no. Config.no.    Active energy      Total energy

         1 :          1    -17.1050141250   -433.9953882256
         2 :         22    -16.9824922919   -433.8728663925
         3 :         28    -16.8554752130   -433.7458493136
         4 :          6    -16.8380907761   -433.7284648768
         5 :          5    -16.8372757687   -433.7276498693
         6 :          3    -16.7745979966   -433.6649720972
         7 :         24    -16.7462508749   -433.6366249755
         8 :          7    -16.7285870540   -433.6189611547


 Convergence threshold for CI optimization :     0.00000500



 *** Reached maximum number of CI iterations:    3
              1 CI roots are not converged.


@ Final CI energies and residuals in symmetry 1 (irrep A1 )
@    1     -434.031726421285555       2.60D-03

   --- OUTPUT FROM SIRCNO     Keyword = FD+NO 


 Occupations of CAS natural orbitals:

 Symmetry  1 ( irrep A1  in C2v )

   1.999856199

 Symmetry  2 ( irrep B1  in C2v )

   1.999847848

 Symmetry  3 ( irrep B2  in C2v )

   1.995750232   0.091231782

 Symmetry  4 ( irrep A2  in C2v )

   1.913363890   1.001158715   0.998791334


 --- MACRO ITERATION  1 ---
 --------------------------

 2-el. integral transformation level 3: Total CPU and WALL times (sec)     100.297     100.311

 Fock matrix screening setting for this macro iteration: 10^( -9)

 Total MCSCF energy       :          -434.031726419289441  (MACRO    1)

 - Nuclear repulsion      :           410.875130999883879
 - Inactive energy        :          -827.765505101909525
 - Active energy          :           -17.141352317263774

 Norm of total gradient   :             0.674728953422
 -    of CI gradient      :             0.005207866810
 -    of orbital gradient :             0.674708854774
      Virial theorem: -V/T =      1.998798
@    MULPOP   C       1.63; C   _1  0.27; C   _2  0.27; C   _1  0.48; C   _2  0.48; C       0.30; N       0.28; O   _1 -0.67; O   _2 -0.67; H   _1 -0.48; 
@             H   _2 -0.48; H   _1 -0.47; H   _2 -0.47; H      -0.47; 

 Residual norm when dim(red L) =   5
 NEO root     CSF        orbital          total
    1     0.08999846     0.03653859     0.09713285 converged

 (NEONEX) NEO vector is converged.

   --- OUTPUT FROM SIRCNO     Keyword = FD+NO 


 Occupations of CAS natural orbitals:

 Symmetry  1 ( irrep A1  in C2v )

   1.999856199

 Symmetry  2 ( irrep B1  in C2v )

   1.999847848

 Symmetry  3 ( irrep B2  in C2v )

   1.995750232   0.091231782

 Symmetry  4 ( irrep A2  in C2v )

   1.913363890   1.001158715   0.998791334


 --- MACRO ITERATION  2 ---
 --------------------------

 2-el. integral transformation level 3: Total CPU and WALL times (sec)     100.016     100.032

 Fock matrix screening setting for this macro iteration: 10^( -9)

 Total MCSCF energy       :          -434.096886941361390  (MACRO    2)

 - Nuclear repulsion      :           410.875130999883879
 - Inactive energy        :          -827.333238507707620
 - Active energy          :           -17.638779433537668

 Norm of total gradient   :             0.078919153899
 -    of CI gradient      :             0.057327113140
 -    of orbital gradient :             0.054238685006
      Virial theorem: -V/T =      2.000731
@    MULPOP   C       2.22; C   _1  0.06; C   _2  0.06; C   _1  0.41; C   _2  0.41; C       0.37; N       0.34; O   _1 -0.81; O   _2 -0.81; H   _1 -0.45; 
@             H   _2 -0.45; H   _1 -0.45; H   _2 -0.45; H      -0.44; 

 Residual norm when dim(red L) =  10
 NEO root     CSF        orbital          total
    1     0.00711838     0.00448246     0.00841212 converged

 (NEONEX) NEO vector is converged.

   --- OUTPUT FROM SIRCNO     Keyword = FD+NO 


 Occupations of CAS natural orbitals:

 Symmetry  1 ( irrep A1  in C2v )

   1.999853581

 Symmetry  2 ( irrep B1  in C2v )

   1.999549570

 Symmetry  3 ( irrep B2  in C2v )

   1.989197660   0.136522681

 Symmetry  4 ( irrep A2  in C2v )

   1.874246549   1.004263026   0.996366934


 --- MACRO ITERATION  3 ---
 --------------------------

 2-el. integral transformation level 3: Total CPU and WALL times (sec)      99.375      99.386

 Fock matrix screening setting for this macro iteration: 10^( -9)

 Total MCSCF energy       :          -434.099918781374640  (MACRO    3)

 - Nuclear repulsion      :           410.875130999883879
 - Inactive energy        :          -826.950926795060923
 - Active energy          :           -18.024122986197611

 Norm of total gradient   :             0.038823476260
 -    of CI gradient      :             0.027271718855
 -    of orbital gradient :             0.027631787122
      Virial theorem: -V/T =      2.000625
@    MULPOP   C       2.21; C   _1  0.06; C   _2  0.06; C   _1  0.41; C   _2  0.41; C       0.38; N       0.31; O   _1 -0.80; O   _2 -0.80; H   _1 -0.44; 
@             H   _2 -0.44; H   _1 -0.45; H   _2 -0.45; H      -0.44; 

 (SIRNEO) iteration (  3,  8)
 Micro iteration termination criterion met, EVAL(ISTATE+1) = -8.46D-04

   --- OUTPUT FROM SIRCNO     Keyword = FD+NO 


 Occupations of CAS natural orbitals:

 Symmetry  1 ( irrep A1  in C2v )

   1.999899515

 Symmetry  2 ( irrep B1  in C2v )

   1.999283943

 Symmetry  3 ( irrep B2  in C2v )

   1.986024361   0.138911797

 Symmetry  4 ( irrep A2  in C2v )

   1.875932999   1.001999535   0.997947850


 --- MACRO ITERATION  4 ---
 --------------------------

 2-el. integral transformation level 3: Total CPU and WALL times (sec)     100.281     100.273

 Fock matrix screening setting for this macro iteration: 10^( -9)

 Total MCSCF energy       :          -434.102918864764888  (MACRO    4)

 - Nuclear repulsion      :           410.875130999883879
 - Inactive energy        :          -825.830282846664090
 - Active energy          :           -19.147767017984673

 Norm of total gradient   :             0.031667375838
 -    of CI gradient      :             0.019963533248
 -    of orbital gradient :             0.024582107980
      Virial theorem: -V/T =      2.000586
@    MULPOP   C       2.21; C   _1  0.06; C   _2  0.06; C   _1  0.41; C   _2  0.41; C       0.38; N       0.32; O   _1 -0.80; O   _2 -0.80; H   _1 -0.44; 
@             H   _2 -0.44; H   _1 -0.45; H   _2 -0.45; H      -0.44; 

 Residual norm when dim(red L) =   9
 NEO root     CSF        orbital          total
    1     0.00496501     0.00276833     0.00568463 converged

 (NEONEX) NEO vector is converged.

   --- OUTPUT FROM SIRCNO     Keyword = FD+NO 


 Occupations of CAS natural orbitals:

 Symmetry  1 ( irrep A1  in C2v )

   1.999813338

 Symmetry  2 ( irrep B1  in C2v )

   1.998751764

 Symmetry  3 ( irrep B2  in C2v )

   1.977619265   0.120030485

 Symmetry  4 ( irrep A2  in C2v )

   1.903915617   1.000418964   0.999450566


 --- MACRO ITERATION  5 ---
 --------------------------

 2-el. integral transformation level 3: Total CPU and WALL times (sec)      99.500      99.525

 Fock matrix screening setting for this macro iteration: 10^( -9)

 Total MCSCF energy       :          -434.102941982320544  (MACRO    5)

 - Nuclear repulsion      :           410.875130999883879
 - Inactive energy        :          -825.350203980361812
 - Active energy          :           -19.627869001842591

 Norm of total gradient   :             0.061816967602
 -    of CI gradient      :             0.054865817966
 -    of orbital gradient :             0.028479457552
      Virial theorem: -V/T =      2.000584
@    MULPOP   C       2.20; C   _1  0.06; C   _2  0.06; C   _1  0.41; C   _2  0.41; C       0.38; N       0.33; O   _1 -0.81; O   _2 -0.81; H   _1 -0.44; 
@             H   _2 -0.44; H   _1 -0.45; H   _2 -0.45; H      -0.44; 

 (SIRSTP) Energy difference;
 actual, predicted and ratio:  -0.000023117555656  -0.003066249586894    0.007539

 (SIRSTP) step is too large -- backstep

   --- OUTPUT FROM SIRCNO     Keyword = FD+NO 


 Occupations of CAS natural orbitals:

 Symmetry  1 ( irrep A1  in C2v )

   1.999834585

 Symmetry  2 ( irrep B1  in C2v )

   1.998957013

 Symmetry  3 ( irrep B2  in C2v )

   1.982366915   0.121244507

 Symmetry  4 ( irrep A2  in C2v )

   1.897717733   1.000031000   0.999848248


 Optimization control: Step was too large, we backstep


 --- MACRO ITERATION  5 BACKSTEP NO.  1 ---

 2-el. integral transformation level 3: Total CPU and WALL times (sec)     100.156     100.178

 Fock matrix screening setting for this macro iteration: 10^( -9)

 Total MCSCF energy       :          -434.104403226122940  (MACRO    5)

 - Nuclear repulsion      :           410.875130999883879
 - Inactive energy        :          -825.375666377111997
 - Active energy          :           -19.603867848894797

 Norm of total gradient   :             0.030454330922
 -    of CI gradient      :             0.024701355809
 -    of orbital gradient :             0.017813177513
      Virial theorem: -V/T =      2.000575
@    MULPOP   C       2.20; C   _1  0.05; C   _2  0.05; C   _1  0.41; C   _2  0.41; C       0.38; N       0.34; O   _1 -0.81; O   _2 -0.81; H   _1 -0.44; 
@             H   _2 -0.44; H   _1 -0.45; H   _2 -0.45; H      -0.44; 

 (SIRNEO) iteration (  5,  8)
 Micro iteration termination criterion met, EVAL(ISTATE+1) = -1.68D-04

   --- OUTPUT FROM SIRCNO     Keyword = FD+NO 


 Occupations of CAS natural orbitals:

 Symmetry  1 ( irrep A1  in C2v )

   1.999582361

 Symmetry  2 ( irrep B1  in C2v )

   1.999135260

 Symmetry  3 ( irrep B2  in C2v )

   1.986080075   0.122036985

 Symmetry  4 ( irrep A2  in C2v )

   1.893302863   1.000016586   0.999845869


 --- MACRO ITERATION  6 ---
 --------------------------

 2-el. integral transformation level 3: Total CPU and WALL times (sec)      99.156      99.198

 Fock matrix screening setting for this macro iteration: 10^( -9)

 Total MCSCF energy       :          -434.104863546249248  (MACRO    6)

 - Nuclear repulsion      :           410.875130999883879
 - Inactive energy        :          -824.891961281341651
 - Active energy          :           -20.088033264791466

 Norm of total gradient   :             0.008656361781
 -    of CI gradient      :             0.007994466248
 -    of orbital gradient :             0.003319805521
      Virial theorem: -V/T =      2.000586
@    MULPOP   C       2.20; C   _1  0.06; C   _2  0.06; C   _1  0.41; C   _2  0.41; C       0.38; N       0.34; O   _1 -0.81; O   _2 -0.81; H   _1 -0.44; 
@             H   _2 -0.44; H   _1 -0.45; H   _2 -0.45; H      -0.44; 

 (SIRNEO) iteration (  6,  6)
 Micro iteration termination criterion met, EVAL(ISTATE+1) = -4.50D-05

   --- OUTPUT FROM SIRCNO     Keyword = FD+NO 


 Occupations of CAS natural orbitals:

 Symmetry  1 ( irrep A1  in C2v )

   1.999649462

 Symmetry  2 ( irrep B1  in C2v )

   1.999165811

 Symmetry  3 ( irrep B2  in C2v )

   1.986164949   0.122265435

 Symmetry  4 ( irrep A2  in C2v )

   1.892895316   1.000019237   0.999839789


 --- MACRO ITERATION  7 ---
 --------------------------

 2-el. integral transformation level 3: Total CPU and WALL times (sec)      99.328      99.345

 Fock matrix screening setting for this macro iteration: 10^( -9)

 Total MCSCF energy       :          -434.105137818243691  (MACRO    7)

 - Nuclear repulsion      :           410.875130999883879
 - Inactive energy        :          -824.365564965630597
 - Active energy          :           -20.614703852496973

 Norm of total gradient   :             0.012583360283
 -    of CI gradient      :             0.012377386168
 -    of orbital gradient :             0.002267436366
      Virial theorem: -V/T =      2.000592
@    MULPOP   C       2.20; C   _1  0.06; C   _2  0.06; C   _1  0.41; C   _2  0.41; C       0.38; N       0.34; O   _1 -0.81; O   _2 -0.81; H   _1 -0.44; 
@             H   _2 -0.44; H   _1 -0.45; H   _2 -0.45; H      -0.44; 

 Residual norm when dim(red L) =  10
 NEO root     CSF        orbital          total
    1     0.00165645     0.00090396     0.00188706 converged

 (NEONEX) NEO vector is converged.

   --- OUTPUT FROM SIRCNO     Keyword = FD+NO 


 Occupations of CAS natural orbitals:

 Symmetry  1 ( irrep A1  in C2v )

   1.998887016

 Symmetry  2 ( irrep B1  in C2v )

   1.999305103

 Symmetry  3 ( irrep B2  in C2v )

   1.986464248   0.123815762

 Symmetry  4 ( irrep A2  in C2v )

   1.891665459   1.000041980   0.999820432


 --- MACRO ITERATION  8 ---
 --------------------------

 2-el. integral transformation level 3: Total CPU and WALL times (sec)     100.000     100.029

 Fock matrix screening setting for this macro iteration: 10^( -9)

 Total MCSCF energy       :          -434.105540061619081  (MACRO    8)

 - Nuclear repulsion      :           410.875130999883879
 - Inactive energy        :          -824.286994642571017
 - Active energy          :           -20.693676418931922

 Norm of total gradient   :             0.005359150771
 -    of CI gradient      :             0.004875442557
 -    of orbital gradient :             0.002224984687
      Virial theorem: -V/T =      2.000587
@    MULPOP   C       2.20; C   _1  0.06; C   _2  0.06; C   _1  0.41; C   _2  0.41; C       0.38; N       0.34; O   _1 -0.81; O   _2 -0.81; H   _1 -0.44; 
@             H   _2 -0.44; H   _1 -0.45; H   _2 -0.45; H      -0.44; 

 Residual norm when dim(red L) =  10
 NEO root     CSF        orbital          total
    1     0.00068606     0.00044152     0.00081585 converged

 (NEONEX) NEO vector is converged.

   --- OUTPUT FROM SIRCNO     Keyword = FD+NO 


 Occupations of CAS natural orbitals:

 Symmetry  1 ( irrep A1  in C2v )

   1.998596770

 Symmetry  2 ( irrep B1  in C2v )

   1.999541463

 Symmetry  3 ( irrep B2  in C2v )

   1.986330352   0.122871199

 Symmetry  4 ( irrep A2  in C2v )

   1.892797316   1.000033228   0.999829671


 --- MACRO ITERATION  9 ---
 --------------------------

 2-el. integral transformation level 3: Total CPU and WALL times (sec)      99.094      99.157

 Fock matrix screening setting for this macro iteration: 10^( -9)

 Total MCSCF energy       :          -434.105613418483642  (MACRO    9)

 - Nuclear repulsion      :           410.875130999883879
 - Inactive energy        :          -824.127606851804103
 - Active energy          :           -20.853137566563394

 Norm of total gradient   :             0.003218463542
 -    of CI gradient      :             0.003172300213
 -    of orbital gradient :             0.000543156449
      Virial theorem: -V/T =      2.000586
@    MULPOP   C       2.20; C   _1  0.06; C   _2  0.06; C   _1  0.41; C   _2  0.41; C       0.38; N       0.34; O   _1 -0.81; O   _2 -0.81; H   _1 -0.44; 
@             H   _2 -0.44; H   _1 -0.45; H   _2 -0.45; H      -0.44; 

 Residual norm when dim(red L) =  16
 NEO root     CSF        orbital          total
    1     0.00006033     0.00004520     0.00007539 converged

 (NEONEX) NEO vector is converged.

   --- OUTPUT FROM SIRCNO     Keyword = FD+NO 


 Occupations of CAS natural orbitals:

 Symmetry  1 ( irrep A1  in C2v )

   1.998714466

 Symmetry  2 ( irrep B1  in C2v )

   1.999522241

 Symmetry  3 ( irrep B2  in C2v )

   1.986406776   0.123027984

 Symmetry  4 ( irrep A2  in C2v )

   1.892466108   1.000035265   0.999827161


 --- MACRO ITERATION 10 ---
 --------------------------

 2-el. integral transformation level 3: Total CPU and WALL times (sec)      99.125      99.145

 Fock matrix screening setting for this macro iteration: 10^( -9)

 Total MCSCF energy       :          -434.105618525038153  (MACRO   10)

 - Nuclear repulsion      :           410.875130999883879
 - Inactive energy        :          -824.105206328073564
 - Active energy          :           -20.875543196848476

 Norm of total gradient   :             0.000125000664
 -    of CI gradient      :             0.000115035437
 -    of orbital gradient :             0.000048908222
      Virial theorem: -V/T =      2.000586
@    MULPOP   C       2.20; C   _1  0.06; C   _2  0.06; C   _1  0.41; C   _2  0.41; C       0.38; N       0.34; O   _1 -0.81; O   _2 -0.81; H   _1 -0.44; 
@             H   _2 -0.44; H   _1 -0.45; H   _2 -0.45; H      -0.44; 

 Residual norm when dim(red L) =  13
 NEO root     CSF        orbital          total
    1     0.00000763     0.00000353     0.00000840 converged

 (NEONEX) NEO vector is converged.

   --- OUTPUT FROM SIRCNO     Keyword = FD+NO 


 Occupations of CAS natural orbitals:

 Symmetry  1 ( irrep A1  in C2v )

   1.998718325

[...]

       No.  Residual tot.,    conf., and orb.    Bnorm      Frequency 
      ----------------------------------------------------------------
         1    7.77904D+01  1.95D+01  7.53D+01  2.40D+03    0.00000D+00

 ** RSPCTL MICROITERATION NUMBER    8

 *** INFO, negative eigenvalues in reduced matrix. Symmetry  4,  triplet       F Dimension of reduced matrix =    18

 GP * SOLUTION vector at frequency     0.00000 a.u.
 after    9 linear transformations is      1.17752432D+04
 INERTIA (POS,ZER,NEG) of reduced matrix is   17    0    1
 Determinant of reduced matrix is -4.25 * 10 **-15.0

       No.  Residual tot.,    conf., and orb.    Bnorm      Frequency 
      ----------------------------------------------------------------
         1    2.42957D+00  1.76D+00  1.67D+00  2.76D+02    0.00000D+00

 ** RSPCTL MICROITERATION NUMBER    9

 *** INFO, negative eigenvalues in reduced matrix. Symmetry  4,  triplet       F Dimension of reduced matrix =    20

 GP * SOLUTION vector at frequency     0.00000 a.u.
 after   10 linear transformations is      1.17777736D+04
 INERTIA (POS,ZER,NEG) of reduced matrix is   19    0    1
 Determinant of reduced matrix is -4.12 * 10 **-15.0

       No.  Residual tot.,    conf., and orb.    Bnorm      Frequency 
      ----------------------------------------------------------------
         1    1.57838D+00  1.42D-01  1.57D+00  2.73D+02    0.00000D+00

 ** RSPCTL MICROITERATION NUMBER   10

 *** INFO, negative eigenvalues in reduced matrix. Symmetry  4,  triplet       F Dimension of reduced matrix =    22

 GP * SOLUTION vector at frequency     0.00000 a.u.
 after   11 linear transformations is      1.17790845D+04
 INERTIA (POS,ZER,NEG) of reduced matrix is   21    0    1
 Determinant of reduced matrix is -2.06 * 10 **-16.0

       No.  Residual tot.,    conf., and orb.    Bnorm      Frequency 
      ----------------------------------------------------------------
         1    6.57017D-01  1.92D-01  6.28D-01  2.72D+02    0.00000D+00

 ** RSPCTL MICROITERATION NUMBER   11

 *** INFO, negative eigenvalues in reduced matrix. Symmetry  4,  triplet       F Dimension of reduced matrix =    24

 GP * SOLUTION vector at frequency     0.00000 a.u.
 after   12 linear transformations is      1.17792337D+04
 INERTIA (POS,ZER,NEG) of reduced matrix is   23    0    1
 Determinant of reduced matrix is -3.77 * 10 **-18.0

       No.  Residual tot.,    conf., and orb.    Bnorm      Frequency 
      ----------------------------------------------------------------
         1    3.12637D-01  2.17D-01  2.25D-01  2.72D+02    0.00000D+00

 ** RSPCTL MICROITERATION NUMBER   12

 *** INFO, negative eigenvalues in reduced matrix. Symmetry  4,  triplet       F Dimension of reduced matrix =    26

 GP * SOLUTION vector at frequency     0.00000 a.u.
 after   13 linear transformations is      1.17792641D+04
 INERTIA (POS,ZER,NEG) of reduced matrix is   25    0    1
 Determinant of reduced matrix is -4.98 * 10 **-21.0

       No.  Residual tot.,    conf., and orb.    Bnorm      Frequency 
      ----------------------------------------------------------------
         1    3.14371D-01  2.29D-01  2.15D-01  2.72D+02    0.00000D+00

 ** RSPCTL MICROITERATION NUMBER   13

 *** INFO, negative eigenvalues in reduced matrix. Symmetry  4,  triplet       F Dimension of reduced matrix =    28

 GP * SOLUTION vector at frequency     0.00000 a.u.
 after   14 linear transformations is      1.17793154D+04
 INERTIA (POS,ZER,NEG) of reduced matrix is   27    0    1
 Determinant of reduced matrix is -4.55 * 10 **-21.0

       No.  Residual tot.,    conf., and orb.    Bnorm      Frequency 
      ----------------------------------------------------------------
         1    2.81759D-01  4.14D-02  2.79D-01  2.72D+02    0.00000D+00

 ** RSPCTL MICROITERATION NUMBER   14

 *** INFO, negative eigenvalues in reduced matrix. Symmetry  4,  triplet       F Dimension of reduced matrix =    30

 GP * SOLUTION vector at frequency     0.00000 a.u.
 after   15 linear transformations is      1.17793112D+04
 INERTIA (POS,ZER,NEG) of reduced matrix is   28    0    2
 Determinant of reduced matrix is  8.08 * 10 **-22.0

       No.  Residual tot.,    conf., and orb.    Bnorm      Frequency 
      ----------------------------------------------------------------
         1    1.19046D-01  5.08D-02  1.08D-01  2.73D+02    0.00000D+00

 *** THE REQUESTED    1 SOLUTION VECTORS CONVERGED

 Convergence of RSP solution vectors, threshold = 1.00D-03
 ---------------------------------------------------------------
 (dimension of paired reduced space:   30)
 RSP solution vector no.    1; norm of residual   4.36D-04

 *** RSPCTL MICROITERATIONS CONVERGED
    XDIPLEN     YDIPLEN      freq1     freq2                Norm
 ---------------------------------------------------------------
                          0.058400 -0.058400        272.80149452


 Perturbation symmetry.     KSYMOP:       1
 Perturbation spin symmetry.TRPLET:       F
 Orbital variables.         KZWOPT:    2762
 Configuration variables.   KZCONF:      56
 Total number of variables. KZVAR :    2818


 CRLRV2 -- linear response calc for sym:  1
 CRLRV2 -- operator label1: YDIPLEN 
 CRLRV2 -- operator label2: YDIPLEN 
 CRLRV2 -- freqr1 :   5.840000D-02
 CRLRV2 -- freqr2 :   5.840000D-02



 ---  SOLVING SETS OF LINEAR EQUATIONS FOR LINEAR RESPONSE PROPERTIES ---

 Operator symmetry = 1  ( A1 ); triplet =   F


 ** RSPCTL MICROITERATION NUMBER    1

       No.  Residual tot.,    conf., and orb.    Bnorm      Frequency 
      ----------------------------------------------------------------
         1    3.15326D+01  2.52D+00  3.14D+01  2.85D+02    1.16800D-01

 ** RSPCTL MICROITERATION NUMBER    2

       No.  Residual tot.,    conf., and orb.    Bnorm      Frequency 
      ----------------------------------------------------------------
         1    1.85719D+01  3.59D+00  1.82D+01  3.41D+02    1.16800D-01

 ** RSPCTL MICROITERATION NUMBER    3

       No.  Residual tot.,    conf., and orb.    Bnorm      Frequency 
      ----------------------------------------------------------------
         1    9.55795D+00  3.51D+00  8.89D+00  3.56D+02    1.16800D-01

 ** RSPCTL MICROITERATION NUMBER    4

       No.  Residual tot.,    conf., and orb.    Bnorm      Frequency 
      ----------------------------------------------------------------
         1    6.83449D+00  3.36D+00  5.95D+00  3.63D+02    1.16800D-01

 ** RSPCTL MICROITERATION NUMBER    5

       No.  Residual tot.,    conf., and orb.    Bnorm      Frequency 
      ----------------------------------------------------------------
         1    4.53300D+00  3.19D+00  3.22D+00  3.65D+02    1.16800D-01

 ** RSPCTL MICROITERATION NUMBER    6

       No.  Residual tot.,    conf., and orb.    Bnorm      Frequency 
      ----------------------------------------------------------------
         1    3.27160D+00  3.14D+00  9.18D-01  3.65D+02    1.16800D-01

 ** RSPCTL MICROITERATION NUMBER    7

       No.  Residual tot.,    conf., and orb.    Bnorm      Frequency 
      ----------------------------------------------------------------
         1    3.09992D+00  1.80D+00  2.53D+00  3.65D+02    1.16800D-01

 ** RSPCTL MICROITERATION NUMBER    8

       No.  Residual tot.,    conf., and orb.    Bnorm      Frequency 
      ----------------------------------------------------------------
         1    2.15012D+00  1.96D+00  8.76D-01  3.65D+02    1.16800D-01

 ** RSPCTL MICROITERATION NUMBER    9

       No.  Residual tot.,    conf., and orb.    Bnorm      Frequency 
      ----------------------------------------------------------------
         1    1.20258D+00  4.69D-01  1.11D+00  3.66D+02    1.16800D-01

 ** RSPCTL MICROITERATION NUMBER   10

       No.  Residual tot.,    conf., and orb.    Bnorm      Frequency 
      ----------------------------------------------------------------
         1    6.50469D-01  5.22D-01  3.88D-01  3.66D+02    1.16800D-01

 ** RSPCTL MICROITERATION NUMBER   11

       No.  Residual tot.,    conf., and orb.    Bnorm      Frequency 
      ----------------------------------------------------------------
         1    5.08943D-01  6.42D-02  5.05D-01  3.66D+02    1.16800D-01

 ** RSPCTL MICROITERATION NUMBER   12

       No.  Residual tot.,    conf., and orb.    Bnorm      Frequency 
      ----------------------------------------------------------------
         1    3.08468D-01  7.92D-02  2.98D-01  3.66D+02    1.16800D-01

 *** THE REQUESTED    1 SOLUTION VECTORS CONVERGED

 Convergence of RSP solution vectors, threshold = 1.00D-03
 ---------------------------------------------------------------
 (dimension of paired reduced space:   26)
 RSP solution vector no.    1; norm of residual   8.43D-04

 *** RSPCTL MICROITERATIONS CONVERGED
    YDIPLEN     YDIPLEN      freq1     freq2                Norm
 ---------------------------------------------------------------
                          0.058400  0.058400        365.79540088
  Time used in CRVEC2     is       2 hours 31 minutes 26 seconds


 ----- CALCULATING CONTRIBUTIONS TO SECOND HYPERPOLARIZABILITY -----


   Contribution                Term         Accumulated
 ------------------------------------------------------
 Na T[4] Nb Nc Nd    -4782.16353132      -4782.16353132
 Na T[3] Nx Nyz       8135.45636206       3353.29283074
 Na X[3] Ny Nz       12768.98749866      16122.28032940
 Nx A[3] Ny Nz        4256.32916622      20378.60949562
 Na X[2] Nyz        -29004.76284354      -8626.15334793
 Nx A[2] Nyz        -28117.68766147     -36743.84100939

@ Cubic response function value in a.u. for
@ A operator, symmetry, frequency:   ZDIPLEN    1 -0.058400
@ B operator, symmetry, frequency:   ZDIPLEN    1  0.058400
@ C operator, symmetry, frequency:   ZDIPLEN    1 -0.058400
@ D operator, symmetry, frequency:   ZDIPLEN    1  0.058400

@ << A; B, C, D >>  =      -36743.84100939



   Contribution                Term         Accumulated
 ------------------------------------------------------
 Na T[4] Nb Nc Nd     -383.83704715       -383.83704715
 Na T[3] Nx Nyz     -15372.50198971     -15756.33903686
 Na X[3] Ny Nz       10305.98604844      -5450.35298842
 Nx A[3] Ny Nz        2644.24101793      -2806.11197049
 Na X[2] Nyz        -16613.19402084     -19419.30599133
 Nx A[2] Nyz        -16694.56921189     -36113.87520322

@ Cubic response function value in a.u. for
@ A operator, symmetry, frequency:   XDIPLEN    2 -0.058400
@ B operator, symmetry, frequency:   XDIPLEN    2  0.058400
@ C operator, symmetry, frequency:   ZDIPLEN    1 -0.058400
@ D operator, symmetry, frequency:   ZDIPLEN    1  0.058400

@ << A; B, C, D >>  =      -36113.87520322



   Contribution                Term         Accumulated
 ------------------------------------------------------
 Na T[4] Nb Nc Nd     -575.46758835       -575.46758835
 Na T[3] Nx Nyz      -6529.33445100      -7104.80203935
 Na X[3] Ny Nz        1447.68839082      -5657.11364853
 Nx A[3] Ny Nz         652.27207088      -5004.84157765
 Na X[2] Nyz         79855.48945394      74850.64787629
 Nx A[2] Nyz         53721.02251722     128571.67039351

@ Cubic response function value in a.u. for
@ A operator, symmetry, frequency:   YDIPLEN    3 -0.058400
@ B operator, symmetry, frequency:   YDIPLEN    3  0.058400
@ C operator, symmetry, frequency:   ZDIPLEN    1 -0.058400
@ D operator, symmetry, frequency:   ZDIPLEN    1  0.058400

@ << A; B, C, D >>  =      128571.67039351



   Contribution                Term         Accumulated
 ------------------------------------------------------
 Na T[4] Nb Nc Nd     -257.98387328       -257.98387328
 Na T[3] Nx Nyz     -14683.60755798     -14941.59143126
 Na X[3] Ny Nz        9406.36017070      -5535.23126056
 Nx A[3] Ny Nz        2333.22695727      -3202.00430329
 Na X[2] Nyz         -7012.23016530     -10214.23446859
 Nx A[2] Nyz         -9239.70913749     -19453.94360608

@ Cubic response function value in a.u. for
@ A operator, symmetry, frequency:   XDIPLEN    2 -0.058400
@ B operator, symmetry, frequency:   ZDIPLEN    1  0.058400
@ C operator, symmetry, frequency:   XDIPLEN    2 -0.058400
@ D operator, symmetry, frequency:   ZDIPLEN    1  0.058400

@ << A; B, C, D >>  =      -19453.94360608



   Contribution                Term         Accumulated
 ------------------------------------------------------
 Na T[4] Nb Nc Nd     -521.93919692       -521.93919692
 Na T[3] Nx Nyz       2261.04360475       1739.10440783
 Na X[3] Ny Nz        1253.03931529       2992.14372312
 Nx A[3] Ny Nz         578.82403866       3570.96776178
 Na X[2] Nyz        -14454.23968671     -10883.27192492
 Nx A[2] Nyz        -12438.17283956     -23321.44476448

@ Cubic response function value in a.u. for
@ A operator, symmetry, frequency:   YDIPLEN    3 -0.058400
@ B operator, symmetry, frequency:   ZDIPLEN    1  0.058400
@ C operator, symmetry, frequency:   YDIPLEN    3 -0.058400
@ D operator, symmetry, frequency:   ZDIPLEN    1  0.058400

@ << A; B, C, D >>  =      -23321.44476448



   Contribution                Term         Accumulated
 ------------------------------------------------------
 Na T[4] Nb Nc Nd     1733.84668503       1733.84668503
 Na T[3] Nx Nyz     -23534.19799063     -21800.35130561
 Na X[3] Ny Nz       14477.68573101      -7322.66557460
 Nx A[3] Ny Nz        5628.12167663      -1694.54389797
 Na X[2] Nyz         -8526.30797730     -10220.85187527
 Nx A[2] Nyz         -9229.60812447     -19450.45999974

@ Cubic response function value in a.u. for
@ A operator, symmetry, frequency:   ZDIPLEN    1 -0.058400
@ B operator, symmetry, frequency:   XDIPLEN    2  0.058400
@ C operator, symmetry, frequency:   ZDIPLEN    1 -0.058400
@ D operator, symmetry, frequency:   XDIPLEN    2  0.058400

@ << A; B, C, D >>  =      -19450.45999974



   Contribution                Term         Accumulated
 ------------------------------------------------------
 Na T[4] Nb Nc Nd    90006.01080849      90006.01080849
 Na T[3] Nx Nyz    -123131.50256449     -33125.49175600
 Na X[3] Ny Nz       84025.92593451      50900.43417851
 Nx A[3] Ny Nz       28008.64197817      78909.07615668
 Na X[2] Nyz        -33542.58225867      45366.49389801
 Nx A[2] Nyz        -40930.40097575       4436.09292226

@ Cubic response function value in a.u. for
@ A operator, symmetry, frequency:   XDIPLEN    2 -0.058400
@ B operator, symmetry, frequency:   XDIPLEN    2  0.058400
@ C operator, symmetry, frequency:   XDIPLEN    2 -0.058400
@ D operator, symmetry, frequency:   XDIPLEN    2  0.058400

@ << A; B, C, D >>  =        4436.09292226



   Contribution                Term         Accumulated
 ------------------------------------------------------
 Na T[4] Nb Nc Nd    -1328.39040947      -1328.39040947
 Na T[3] Nx Nyz       4708.37693905       3379.98652957
 Na X[3] Ny Nz        4642.93142976       8022.91795933
 Nx A[3] Ny Nz        1736.36878804       9759.28674737
 Na X[2] Nyz        -67608.86253122     -57849.57578385
 Nx A[2] Nyz        -48892.06329852    -106741.63908237

@ Cubic response function value in a.u. for
@ A operator, symmetry, frequency:   YDIPLEN    3 -0.058400
@ B operator, symmetry, frequency:   YDIPLEN    3  0.058400
@ C operator, symmetry, frequency:   XDIPLEN    2 -0.058400
@ D operator, symmetry, frequency:   XDIPLEN    2  0.058400

@ << A; B, C, D >>  =     -106741.63908237



   Contribution                Term         Accumulated
 ------------------------------------------------------
 Na T[4] Nb Nc Nd     -980.67828884       -980.67828884
 Na T[3] Nx Nyz       1491.45762091        510.77933207
 Na X[3] Ny Nz        3826.04611401       4336.82544608
 Nx A[3] Ny Nz        1375.39608026       5712.22152635
 Na X[2] Nyz        -17572.55207051     -11860.33054416
 Nx A[2] Nyz        -17257.64157964     -29117.97212380

@ Cubic response function value in a.u. for
@ A operator, symmetry, frequency:   YDIPLEN    3 -0.058400
@ B operator, symmetry, frequency:   XDIPLEN    2  0.058400
@ C operator, symmetry, frequency:   YDIPLEN    3 -0.058400
@ D operator, symmetry, frequency:   XDIPLEN    2  0.058400

@ << A; B, C, D >>  =      -29117.97212380



   Contribution                Term         Accumulated
 ------------------------------------------------------
 Na T[4] Nb Nc Nd     -540.59112963       -540.59112963
 Na T[3] Nx Nyz       1357.60455996        817.01343033
 Na X[3] Ny Nz        1456.90291363       2273.91634396
 Nx A[3] Ny Nz         324.49003765       2598.40638161
 Na X[2] Nyz        -11886.67926633      -9288.27288472
 Nx A[2] Nyz        -14046.87932241     -23335.15220713

@ Cubic response function value in a.u. for
@ A operator, symmetry, frequency:   ZDIPLEN    1 -0.058400
@ B operator, symmetry, frequency:   YDIPLEN    3  0.058400
@ C operator, symmetry, frequency:   ZDIPLEN    1 -0.058400
@ D operator, symmetry, frequency:   YDIPLEN    3  0.058400

@ << A; B, C, D >>  =      -23335.15220713



   Contribution                Term         Accumulated
 ------------------------------------------------------
 Na T[4] Nb Nc Nd     -790.84915368       -790.84915368
 Na T[3] Nx Nyz       2671.88850105       1881.03934737
 Na X[3] Ny Nz        2905.24995319       4786.28930056
 Nx A[3] Ny Nz         868.36927547       5654.65857603
 Na X[2] Nyz        -16890.37376897     -11235.71519294
 Nx A[2] Nyz        -17875.29663098     -29111.01182392

@ Cubic response function value in a.u. for
@ A operator, symmetry, frequency:   XDIPLEN    2 -0.058400
@ B operator, symmetry, frequency:   YDIPLEN    3  0.058400
@ C operator, symmetry, frequency:   XDIPLEN    2 -0.058400
@ D operator, symmetry, frequency:   YDIPLEN    3  0.058400

@ << A; B, C, D >>  =      -29111.01182392



   Contribution                Term         Accumulated
 ------------------------------------------------------
 Na T[4] Nb Nc Nd     -944.00604810       -944.00604810
 Na T[3] Nx Nyz       4247.69874631       3303.69269821
 Na X[3] Ny Nz        3005.08286254       6308.77556074
 Nx A[3] Ny Nz        1001.69428751       7310.46984826
 Na X[2] Nyz        -18398.71927735     -11088.24942909
 Nx A[2] Nyz        -18449.02096525     -29537.27039434

@ Cubic response function value in a.u. for
@ A operator, symmetry, frequency:   YDIPLEN    3 -0.058400
@ B operator, symmetry, frequency:   YDIPLEN    3  0.058400
@ C operator, symmetry, frequency:   YDIPLEN    3 -0.058400
@ D operator, symmetry, frequency:   YDIPLEN    3  0.058400

@ << A; B, C, D >>  =      -29537.27039434



  Summary of gamma values for a set of frequencies
 -------------------------------------------------

@ B-freq:  0.058400
@ C-freq: -0.058400
@ D-freq:  0.058400

@ gamma(X;X,X,X)      -4436.0929
@ gamma(X;X,Y,Y)     106741.6391
@ gamma(X;Y,Y,X)     106741.6391
@ gamma(X;Y,X,Y)      29111.0118
@ gamma(X;X,Z,Z)      36113.8752
@ gamma(X;Z,Z,X)      36113.8752
@ gamma(X;Z,X,Z)      19453.9436
@ gamma(Y;Y,X,X)     106741.6391
@ gamma(Y;X,X,Y)     106741.6391
@ gamma(Y;X,Y,X)      29117.9721
@ gamma(Y;Y,Y,Y)      29537.2704
@ gamma(Y;Y,Z,Z)    -128571.6704
@ gamma(Y;Z,Z,Y)    -128571.6704
@ gamma(Y;Z,Y,Z)      23321.4448
@ gamma(Z;Z,X,X)      36113.8752
@ gamma(Z;X,X,Z)      36113.8752
@ gamma(Z;X,Z,X)      19450.4600
@ gamma(Z;Z,Y,Y)    -128571.6704
@ gamma(Z;Y,Y,Z)    -128571.6704
@ gamma(Z;Y,Z,Y)      23335.1522
@ gamma(Z;Z,Z,Z)      36743.8410

@ Averaged gamma parallel to the applied field is     25764.027703

  Total CPU  time used in RESPONSE:   7 hours 22 minutes 43 seconds
  Total wall time used in RESPONSE:   7 hours 22 minutes 49 seconds


                   .-------------------------------------------.
                   | End of Dynamic Property Section (RESPONS) |
                   `-------------------------------------------'

  Total CPU  time used in DALTON:   8 hours 54 minutes 13 seconds
  Total wall time used in DALTON:   8 hours 54 minutes 22 seconds

 
     Date and time (Linux)  : Thu Feb 13 09:57:02 2020
     Host name              : Lab2-333-NPs                            
