

     ************************************************************************
     *************** Dalton - An Electronic Structure Program ***************
     ************************************************************************

    This is output from DALTON release Dalton2018.1 (2019)
         ( Web site: http://daltonprogram.org )

   ----------------------------------------------------------------------------

    NOTE:
     
    Dalton is an experimental code for the evaluation of molecular
    properties using (MC)SCF, DFT, CI, and CC wave functions.
    The authors accept no responsibility for the performance of
    the code or for the correctness of the results.
     
    The code (in whole or part) is provided under a licence and
    is not to be reproduced for further distribution without
    the written permission of the authors or their representatives.
     
    See the home page "http://daltonprogram.org" for further information.
     
    If results obtained with this code are published,
    the appropriate citations would be both of:
     
       K. Aidas, C. Angeli, K. L. Bak, V. Bakken, R. Bast,
       L. Boman, O. Christiansen, R. Cimiraglia, S. Coriani,
       P. Dahle, E. K. Dalskov, U. Ekstroem,
       T. Enevoldsen, J. J. Eriksen, P. Ettenhuber, B. Fernandez,
       L. Ferrighi, H. Fliegl, L. Frediani, K. Hald, A. Halkier,
       C. Haettig, H. Heiberg, T. Helgaker, A. C. Hennum,
       H. Hettema, E. Hjertenaes, S. Hoest, I.-M. Hoeyvik,
       M. F. Iozzi, B. Jansik, H. J. Aa. Jensen, D. Jonsson,
       P. Joergensen, J. Kauczor, S. Kirpekar,
       T. Kjaergaard, W. Klopper, S. Knecht, R. Kobayashi, H. Koch,
       J. Kongsted, A. Krapp, K. Kristensen, A. Ligabue,
       O. B. Lutnaes, J. I. Melo, K. V. Mikkelsen, R. H. Myhre,
       C. Neiss, C. B. Nielsen, P. Norman, J. Olsen,
       J. M. H. Olsen, A. Osted, M. J. Packer, F. Pawlowski,
       T. B. Pedersen, P. F. Provasi, S. Reine, Z. Rinkevicius,
       T. A. Ruden, K. Ruud, V. Rybkin, P. Salek, C. C. M. Samson,
       A. Sanchez de Meras, T. Saue, S. P. A. Sauer,
       B. Schimmelpfennig, K. Sneskov, A. H. Steindal,
       K. O. Sylvester-Hvid, P. R. Taylor, A. M. Teale,
       E. I. Tellgren, D. P. Tew, A. J. Thorvaldsen, L. Thoegersen,
       O. Vahtras, M. A. Watson, D. J. D. Wilson, M. Ziolkowski
       and H. Agren,
       "The Dalton quantum chemistry program system",
       WIREs Comput. Mol. Sci. 2014, 4:269–284 (doi: 10.1002/wcms.1172)
     
    and
     
       Dalton, a molecular electronic structure program,
       Release Dalton2018.1 (2019), see http://daltonprogram.org
   ----------------------------------------------------------------------------

    Authors in alphabetical order (major contribution(s) in parenthesis):

  Kestutis Aidas,           Vilnius University,           Lithuania   (QM/MM)
  Celestino Angeli,         University of Ferrara,        Italy       (NEVPT2)
  Keld L. Bak,              UNI-C,                        Denmark     (AOSOPPA, non-adiabatic coupling, magnetic properties)
  Vebjoern Bakken,          University of Oslo,           Norway      (DALTON; geometry optimizer, symmetry detection)
  Radovan Bast,             UiT The Arctic U. of Norway,  Norway      (DALTON installation and execution frameworks)
  Pablo Baudin,             University of Valencia,       Spain       (Cholesky excitation energies)
  Linus Boman,              NTNU,                         Norway      (Cholesky decomposition and subsystems)
  Ove Christiansen,         Aarhus University,            Denmark     (CC module)
  Renzo Cimiraglia,         University of Ferrara,        Italy       (NEVPT2)
  Sonia Coriani,            Technical Univ. of Denmark,   Denmark     (CC module, MCD in RESPONS)
  Janusz Cukras,            University of Trieste,        Italy       (MChD in RESPONS)
  Paal Dahle,               University of Oslo,           Norway      (Parallelization)
  Erik K. Dalskov,          UNI-C,                        Denmark     (SOPPA)
  Thomas Enevoldsen,        Univ. of Southern Denmark,    Denmark     (SOPPA)
  Janus J. Eriksen,         Aarhus University,            Denmark     (Polarizable embedding model, TDA)
  Rasmus Faber,             University of Copenhagen,     Denmark     (Vib.avg. NMR with SOPPA, parallel AO-SOPPA)
  Tobias Fahleson,          KTH Stockholm,                Sweden      (Damped cubic response)
  Berta Fernandez,          U. of Santiago de Compostela, Spain       (doublet spin, ESR in RESPONS)
  Lara Ferrighi,            Aarhus University,            Denmark     (PCM Cubic response)
  Heike Fliegl,             University of Oslo,           Norway      (CCSD(R12))
  Luca Frediani,            UiT The Arctic U. of Norway,  Norway      (PCM)
  Bin Gao,                  UiT The Arctic U. of Norway,  Norway      (Gen1Int library)
  Christof Haettig,         Ruhr-University Bochum,       Germany     (CC module)
  Kasper Hald,              Aarhus University,            Denmark     (CC module)
  Asger Halkier,            Aarhus University,            Denmark     (CC module)
  Frederik Beyer Hansen,    University of Copenhagen,     Denmark     (Parallel AO-SOPPA)
  Erik D. Hedegaard,        Univ. of Southern Denmark,    Denmark     (Polarizable embedding model, QM/MM)
  Hanne Heiberg,            University of Oslo,           Norway      (geometry analysis, selected one-electron integrals)
  Trygve Helgaker,          University of Oslo,           Norway      (DALTON; ABACUS, ERI, DFT modules, London, and much more)
  Alf Christian Hennum,     University of Oslo,           Norway      (Parity violation)
  Hinne Hettema,            University of Auckland,       New Zealand (quadratic response in RESPONS; SIRIUS supersymmetry)
  Eirik Hjertenaes,         NTNU,                         Norway      (Cholesky decomposition)
  Pi A. B. Haase,           University of Copenhagen,     Denmark     (Triplet AO-SOPPA)
  Maria Francesca Iozzi,    University of Oslo,           Norway      (RPA)
  Christoph Jacob           TU Braunschweig               Germany     (Frozen density embedding model)
  Brano Jansik              Technical Univ. of Ostrava    Czech Rep.  (DFT cubic response)
  Hans Joergen Aa. Jensen,  Univ. of Southern Denmark,    Denmark     (DALTON; SIRIUS, RESPONS, ABACUS modules, London, and much more)
  Dan Jonsson,              UiT The Arctic U. of Norway,  Norway      (cubic response in RESPONS module)
  Poul Joergensen,          Aarhus University,            Denmark     (RESPONS, ABACUS, and CC modules)
  Maciej Kaminski,          University of Warsaw,         Poland      (CPPh in RESPONS)
  Joanna Kauczor,           Linkoeping University,        Sweden      (Complex polarization propagator (CPP) module)
  Sheela Kirpekar,          Univ. of Southern Denmark,    Denmark     (Mass-velocity & Darwin integrals)
  Wim Klopper,              KIT Karlsruhe,                Germany     (R12 code in CC, SIRIUS, and ABACUS modules)
  Stefan Knecht,            ETH Zurich,                   Switzerland (Parallel CI and MCSCF)
  Rika Kobayashi,           Australian National Univ.,    Australia   (DIIS in CC, London in MCSCF)
  Henrik Koch,              NTNU,                         Norway      (CC module, Cholesky decomposition)
  Jacob Kongsted,           Univ. of Southern Denmark,    Denmark     (Polarizable embedding model, QM/MM)
  Andrea Ligabue,           University of Modena,         Italy       (CTOCD, AOSOPPA)
  Nanna H. List             Univ. of Southern Denmark,    Denmark     (Polarizable embedding model)
  Ola B. Lutnaes,           University of Oslo,           Norway      (DFT Hessian)
  Juan I. Melo,             University of Buenos Aires,   Argentina   (LRESC, Relativistic Effects on NMR Shieldings)
  Kurt V. Mikkelsen,        University of Copenhagen,     Denmark     (MC-SCRF and QM/MM)
  Rolf H. Myhre,            NTNU,                         Norway      (Subsystems and CC3)
  Christian Neiss,          Univ. Erlangen-Nuernberg,     Germany     (CCSD(R12))
  Christian B. Nielsen,     University of Copenhagen,     Denmark     (QM/MM)
  Patrick Norman,           KTH Stockholm,                Sweden      (Cubic response and complex frequency response in RESPONS)
  Jeppe Olsen,              Aarhus University,            Denmark     (SIRIUS CI/density modules)
  Jogvan Magnus H. Olsen,   Univ. of Southern Denmark,    Denmark     (Polarizable embedding model, QM/MM)
  Anders Osted,             Copenhagen University,        Denmark     (QM/MM)
  Martin J. Packer,         University of Sheffield,      UK          (SOPPA)
  Filip Pawlowski,          Kazimierz Wielki University,  Poland      (CC3)
  Morten N. Pedersen,       Univ. of Southern Denmark,    Denmark     (Polarizable embedding model)
  Thomas B. Pedersen,       University of Oslo,           Norway      (Cholesky decomposition)
  Patricio F. Provasi,      University of Northeastern,   Argentina   (Analysis of coupling constants in localized orbitals)
  Zilvinas Rinkevicius,     KTH Stockholm,                Sweden      (open-shell DFT, ESR)
  Elias Rudberg,            KTH Stockholm,                Sweden      (DFT grid and basis info)
  Torgeir A. Ruden,         University of Oslo,           Norway      (Numerical derivatives in ABACUS)
  Kenneth Ruud,             UiT The Arctic U. of Norway,  Norway      (DALTON; ABACUS magnetic properties and much more)
  Pawel Salek,              KTH Stockholm,                Sweden      (DALTON; DFT code)
  Claire C. M. Samson       University of Karlsruhe       Germany     (Boys localization, r12 integrals in ERI)
  Alfredo Sanchez de Meras, University of Valencia,       Spain       (CC module, Cholesky decomposition)
  Trond Saue,               Paul Sabatier University,     France      (direct Fock matrix construction)
  Stephan P. A. Sauer,      University of Copenhagen,     Denmark     (SOPPA(CCSD), SOPPA prop., AOSOPPA, vibrational g-factors)
  Andre S. P. Gomes,        CNRS/Universite de Lille,     France      (Frozen density embedding model)
  Bernd Schimmelpfennig,    Forschungszentrum Karlsruhe,  Germany     (AMFI module)
  Kristian Sneskov,         Aarhus University,            Denmark     (Polarizable embedding model, QM/MM)
  Arnfinn H. Steindal,      UiT The Arctic U. of Norway,  Norway      (parallel QM/MM, Polarizable embedding model)
  Casper Steinmann,         Univ. of Southern Denmark,    Denmark     (QFIT, Polarizable embedding model)
  K. O. Sylvester-Hvid,     University of Copenhagen,     Denmark     (MC-SCRF)
  Peter R. Taylor,          VLSCI/Univ. of Melbourne,     Australia   (Symmetry handling ABACUS, integral transformation)
  Andrew M. Teale,          University of Nottingham,     England     (DFT-AC, DFT-D)
  David P. Tew,             University of Bristol,        England     (CCSD(R12))
  Olav Vahtras,             KTH Stockholm,                Sweden      (triplet response, spin-orbit, ESR, TDDFT, open-shell DFT)
  Lucas Visscher,           Vrije Universiteit Amsterdam, Netherlands (Frozen density embedding model)
  David J. Wilson,          La Trobe University,          Australia   (DFT Hessian and DFT magnetizabilities)
  Hans Agren,               KTH Stockholm,                Sweden      (SIRIUS module, RESPONS, MC-SCRF solvation model)
 --------------------------------------------------------------------------------

     Date and time (Linux)  : Sat Feb  8 11:45:29 2020
     Host name              : Lab2-333-NPs                            

 * Work memory size             :  1024000000 =  7.629 gigabytes.

 * Directories for basis set searches:
   1) /home/lab333/dalton/build_2018_atlas
   2) /home/lab333/dalton/build_2018_atlas/basis


Compilation information
-----------------------

 Who compiled             | lab333
 Host                     | Lab2-333-NPs
 System                   | Linux-4.4.0-43-Microsoft
 CMake generator          | Unix Makefiles
 Processor                | x86_64
 64-bit integers          | OFF
 MPI                      | OFF
 Fortran compiler         | /usr/bin/gfortran
 Fortran compiler version | GNU Fortran (Ubuntu 7.3.0-27ubuntu1~18.04) 7.3.0
 C compiler               | /usr/bin/gcc
 C compiler version       | gcc (Ubuntu 7.3.0-27ubuntu1~18.04) 7.3.0
 C++ compiler             | /usr/bin/g++
 C++ compiler version     | g++ (Ubuntu 7.3.0-27ubuntu1~18.04) 7.3.0
 BLAS                     | /usr/lib/x86_64-linux-gnu/libf77blas.so;/usr/lib/x
                          | 86_64-linux-gnu/libcblas.so;/usr/lib/x86_64-linux-
                          | gnu/libatlas.so
 LAPACK                   | /usr/lib/x86_64-linux-gnu/libatlas.so;/usr/lib/x86
                          | _64-linux-gnu/atlas/liblapack.so
 Static linking           | OFF
 Last Git revision        | da625bf48c74028e805616daee31bc5d76b3a20d
 Git branch               | (HEAD detached at Dalton2018.1)
 Configuration time       | 2019-01-18 10:20:51.437510


   Content of the .dal input file
 ----------------------------------

**DALTON INPUT
.RUN RESPONSE
.DIRECT
**WAVE FUNCTIONS
.HF
.MP2
.MCSCF
*CONFIGURATION INPUT
.SPIN MULTIPLICITY
3
.SYMMETRY
1
.INACTIVE ORBITALS
15 10 2 0
.CAS SPACE
1 1 2 3
.ELECTRONS
10
*ORBITAL INPUT
.MOSTART
.HUCKEL
*OPTIMIZATION
.DETERMINANTS
.STATE
2
*CI VECTOR
.PLUS COMBINATIONS
**RESPONSE
*CUBIC
.DIPLEN
.BFREQ
1
0.0584
.CFREQ
1
-0.0584
.DFREQ
1
0.0584
**END OF DALTON INPUT


   Content of the .mol file
 ----------------------------

BASIS
aug-cc-pCVDZ
 nitrobenzene
 Generated by the Dalton Input File Plugin for Avogadro
Atomtypes=4 Angstrom Generators=2 X Y
Charge=6.0 Atoms=4
C        0.0000000000            0.0000000000           -0.0265759623
C       -1.2190534920            0.0000000000           -0.6979856948
C       -1.2105095870            0.0000000000           -2.0897394457
C        0.0000000000            0.0000000000           -2.7841484631
Charge=7.0 Atoms=1
N        0.0000000000            0.0000000000            1.4549291696
Charge=8.0 Atoms=1
O       1.1004245573672222            0.0            1.9926192638262359
Charge=1.0 Atoms=3
H       -2.1410602955            0.0000000000           -0.1327964319
H       -2.1492827751            0.0000000000           -2.6311811056
H        0.0000000000            0.0000000000           -3.8683953478


       *******************************************************************
       *********** Output from DALTON general input processing ***********
       *******************************************************************

 --------------------------------------------------------------------------------
   Overall default print level:    0
   Print level for DALTON.STAT:    1

    AO-direct calculation (in sections where implemented)
    HERMIT 1- and 2-electron integral sections will be executed
    "Old" integral transformation used (limited to max 255 basis functions)
    Wave function sections will be executed (SIRIUS module)
    Dynamic molecular response properties section will be executed (RESPONSE module)
 --------------------------------------------------------------------------------


   ****************************************************************************
   *************** Output of molecule and basis set information ***************
   ****************************************************************************


    The two title cards from your ".mol" input:
    ------------------------------------------------------------------------
 1:  nitrobenzene                                                           
 2:  Generated by the Dalton Input File Plugin for Avogadro                 
    ------------------------------------------------------------------------

  Coordinates are entered in Angstrom and converted to atomic units.
          - Conversion factor : 1 bohr = 0.52917721 A

  Atomic type no.    1
  --------------------
  Nuclear charge:   6.00000
  Number of symmetry independent centers:    4
  Number of basis sets to read;    2
  Basis set file used for this atomic type with Z =   6 :
     "/home/lab333/dalton/build_2018_atlas/basis/aug-cc-pCVDZ"

  Atomic type no.    2
  --------------------
  Nuclear charge:   7.00000
  Number of symmetry independent centers:    1
  Number of basis sets to read;    2
  Basis set file used for this atomic type with Z =   7 :
     "/home/lab333/dalton/build_2018_atlas/basis/aug-cc-pCVDZ"

  Atomic type no.    3
  --------------------
  Nuclear charge:   8.00000
  Number of symmetry independent centers:    1
  Number of basis sets to read;    2
  Basis set file used for this atomic type with Z =   8 :
     "/home/lab333/dalton/build_2018_atlas/basis/aug-cc-pCVDZ"

  Atomic type no.    4
  --------------------
  Nuclear charge:   1.00000
  Number of symmetry independent centers:    3
  Number of basis sets to read;    2
  Basis set file used for this atomic type with Z =   1 :
     "/home/lab333/dalton/build_2018_atlas/basis/aug-cc-pCVDZ"


                         SYMGRP: Point group information
                         -------------------------------

@    Point group: C2v

@  * The irrep name for each symmetry:    1: A1     2: B1     3: B2     4: A2 

   * The point group was generated by:

      Reflection in the yz-plane
      Reflection in the xz-plane

   * Group multiplication table

        |  E   C2z  Oxz  Oyz
   -----+--------------------
     E  |  E   C2z  Oxz  Oyz
    C2z | C2z   E   Oyz  Oxz
    Oxz | Oxz  Oyz   E   C2z
    Oyz | Oyz  Oxz  C2z   E 

   * Character table

        |  E   C2z  Oxz  Oyz
   -----+--------------------
    A1  |   1    1    1    1
    B1  |   1   -1    1   -1
    B2  |   1   -1   -1    1
    A2  |   1    1   -1   -1

   * Direct product table

        | A1   B1   B2   A2 
   -----+--------------------
    A1  | A1   B1   B2   A2 
    B1  | B1   A1   A2   B2 
    B2  | B2   A2   A1   B1 
    A2  | A2   B2   B1   A1 


                                 Isotopic Masses
                                 ---------------

                           C          12.000000
                           C   _1     12.000000
                           C   _2     12.000000
                           C   _1     12.000000
                           C   _2     12.000000
                           C          12.000000
                           N          14.003074
                           O   _1     15.994915
                           O   _2     15.994915
                           H   _1      1.007825
                           H   _2      1.007825
                           H   _1      1.007825
                           H   _2      1.007825
                           H           1.007825

                       Total mass:   123.032029 amu
                       Natural abundance:  92.716 %

 Center-of-mass coordinates (a.u.):    0.000000    0.000000   -0.399150


  Atoms and basis sets
  --------------------

  Number of atom types :    4
  Total number of atoms:   14

  Basis set used is "aug-cc-pCVDZ" from the basis set library.

  label    atoms   charge   prim   cont     basis
  ----------------------------------------------------------------------
  C           6    6.0000    39    27      [11s6p2d|5s4p2d]                                   
  N           1    7.0000    39    27      [11s6p2d|5s4p2d]                                   
  O           2    8.0000    39    27      [11s6p2d|5s4p2d]                                   
  H           5    1.0000    11     9      [5s2p|3s2p]                                        
  ----------------------------------------------------------------------
  total:     14   64.0000   406   288
  ----------------------------------------------------------------------
  Spherical harmonic basis used.

  Threshold for neglecting AO integrals:  1.00D-12


  Symmetry Coordinates
  --------------------

  Number of coordinates in each symmetry:    14   14    9    5


   Interatomic separations (in Angstrom):
   --------------------------------------

            C           C   _1      C   _2      C   _1      C   _2      C     
            ------      ------      ------      ------      ------      ------
 C     :    0.000000
 C   _1:    1.391719    0.000000
 C   _2:    1.391719    2.438107    0.000000
 C   _1:    2.392065    1.391780    2.799956    0.000000
 C   _2:    2.392065    2.799956    1.391780    2.421019    0.000000
 C     :    2.757573    2.416230    2.416230    1.395542    1.395542    0.000000
 N     :    1.481505    2.474093    2.474093    3.745665    3.745665    4.239078
 O   _1:    2.299583    3.552370    2.693219    4.691063    4.083843    4.901882
 O   _2:    2.299583    2.693219    3.552370    4.083843    4.691063    4.901882
 H   _1:    2.143694    1.081451    3.407316    2.166922    3.881063    3.407904
 H   _2:    2.143694    3.407316    1.081451    3.881063    2.166922    3.407904
 H   _1:    3.376890    2.145360    3.883675    1.083722    3.403140    2.154719
 H   _2:    3.376890    3.883675    2.145360    3.403140    1.083722    2.154719
 H     :    3.841819    3.396703    3.396703    2.151500    2.151500    1.084247

            N           O   _1      O   _2      H   _1      H   _2      H   _1
            ------      ------      ------      ------      ------      ------
 N     :    0.000000
 O   _1:    1.224763    0.000000
 O   _2:    1.224763    2.200849    0.000000
 H   _1:    2.665523    3.876160    2.366498    0.000000
 H   _2:    2.665523    2.366498    3.876160    4.282121    0.000000
 H   _1:    4.616894    5.651560    4.741269    2.498398    4.964773    0.000000
 H   _2:    4.616894    4.741269    5.651560    4.964773    2.498398    4.298566
 H     :    5.323325    5.963424    5.963424    4.305675    4.305675    2.479943

            H   _2      H     
            ------      ------
 H   _2:    0.000000
 H     :    2.479943    0.000000


  Max    interatomic separation is    5.9634 Angstrom (   11.2692 Bohr)
  between atoms   14 and    8, "H     " and "O   _1".

  Min HX interatomic separation is    1.0815 Angstrom (    2.0436 Bohr)

  Min YX interatomic separation is    1.2248 Angstrom (    2.3145 Bohr)


  Bond distances (Angstrom):
  --------------------------

                  atom 1     atom 2       distance
                  ------     ------       --------
  bond distance:  C   _1     C            1.391719
  bond distance:  C   _2     C            1.391719
  bond distance:  C   _1     C   _1       1.391780
  bond distance:  C   _2     C   _2       1.391780
  bond distance:  C          C   _1       1.395542
  bond distance:  C          C   _2       1.395542
  bond distance:  N          C            1.481505
  bond distance:  O   _1     N            1.224763
  bond distance:  O   _2     N            1.224763
  bond distance:  H   _1     C   _1       1.081451
  bond distance:  H   _2     C   _2       1.081451
  bond distance:  H   _1     C   _1       1.083722
  bond distance:  H   _2     C   _2       1.083722
  bond distance:  H          C            1.084247


  Bond angles (degrees):
  ----------------------

                  atom 1     atom 2     atom 3         angle
                  ------     ------     ------         -----
  bond angle:     C   _1     C          C   _2       122.311
  bond angle:     C   _1     C          N            118.844
  bond angle:     C   _2     C          N            118.844
  bond angle:     C          C   _1     C   _1       118.493
  bond angle:     C          C   _1     H   _1       119.647
  bond angle:     C   _1     C   _1     H   _1       121.860
  bond angle:     C          C   _2     C   _2       118.493
  bond angle:     C          C   _2     H   _2       119.647
  bond angle:     C   _2     C   _2     H   _2       121.860
  bond angle:     C   _1     C   _1     C            120.192
  bond angle:     C   _1     C   _1     H   _1       119.623
  bond angle:     C          C   _1     H   _1       120.185
  bond angle:     C   _2     C   _2     C            120.192
  bond angle:     C   _2     C   _2     H   _2       119.623
  bond angle:     C          C   _2     H   _2       120.185
  bond angle:     C   _1     C          C   _2       120.319
  bond angle:     C   _1     C          H            119.841
  bond angle:     C   _2     C          H            119.841
  bond angle:     C          N          O   _1       116.041
  bond angle:     C          N          O   _2       116.041
  bond angle:     O   _1     N          O   _2       127.918




 Principal moments of inertia (u*A**2) and principal axes
 --------------------------------------------------------

   IA     128.122923          0.000000    0.000000    1.000000
   IB     389.768261          1.000000    0.000000    0.000000
   IC     517.891184          0.000000    1.000000    0.000000


 Rotational constants
 --------------------

@    The molecule is planar.

               A                   B                   C

           3944.4854           1296.6141            975.8401 MHz
            0.131574            0.043250            0.032551 cm-1


@  Nuclear repulsion energy :  412.647786818205 Hartree


  Symmetry Orbitals
  -----------------

  Number of orbitals in each symmetry:         115   91   48   34


  Symmetry  A1 ( 1)

    1     C        1s         1
    2     C        1s         2
    3     C        1s         3
    4     C        1s         4
    5     C        1s         5
    6     C        2pz        8
    7     C        2pz       11
    8     C        2pz       14
    9     C        2pz       17
   10     C        3d0       20
   11     C        3d2+      22
   12     C        3d0       25
   13     C        3d2+      27
   14     C        1s        28 +   29
   15     C        1s        30 +   31
   16     C        1s        32 +   33
   17     C        1s        34 +   35
   18     C        1s        36 +   37
   19     C        2px       38 -   39
   20     C        2pz       42 +   43
   21     C        2px       44 -   45
   22     C        2pz       48 +   49
   23     C        2px       50 -   51
   24     C        2pz       54 +   55
   25     C        2px       56 -   57
   26     C        2pz       60 +   61
   27     C        3d0       66 +   67
   28     C        3d1+      68 -   69
   29     C        3d2+      70 +   71
   30     C        3d0       76 +   77
   31     C        3d1+      78 -   79
   32     C        3d2+      80 +   81
   33     C        1s        82 +   83
   34     C        1s        84 +   85
   35     C        1s        86 +   87
   36     C        1s        88 +   89
   37     C        1s        90 +   91
   38     C        2px       92 -   93
   39     C        2pz       96 +   97
   40     C        2px       98 -   99
   41     C        2pz      102 +  103
   42     C        2px      104 -  105
   43     C        2pz      108 +  109
   44     C        2px      110 -  111
   45     C        2pz      114 +  115
   46     C        3d0      120 +  121
   47     C        3d1+     122 -  123
   48     C        3d2+     124 +  125
   49     C        3d0      130 +  131
   50     C        3d1+     132 -  133
   51     C        3d2+     134 +  135
   52     C        1s       136
   53     C        1s       137
   54     C        1s       138
   55     C        1s       139
   56     C        1s       140
   57     C        2pz      143
   58     C        2pz      146
   59     C        2pz      149
   60     C        2pz      152
   61     C        3d0      155
   62     C        3d2+     157
   63     C        3d0      160
   64     C        3d2+     162
   65     N        1s       163
   66     N        1s       164
   67     N        1s       165
   68     N        1s       166
   69     N        1s       167
   70     N        2pz      170
   71     N        2pz      173
   72     N        2pz      176
   73     N        2pz      179
   74     N        3d0      182
   75     N        3d2+     184
   76     N        3d0      187
   77     N        3d2+     189
   78     O        1s       190 +  191
   79     O        1s       192 +  193
   80     O        1s       194 +  195
   81     O        1s       196 +  197
   82     O        1s       198 +  199
   83     O        2px      200 -  201
   84     O        2pz      204 +  205
   85     O        2px      206 -  207
   86     O        2pz      210 +  211
   87     O        2px      212 -  213
   88     O        2pz      216 +  217
   89     O        2px      218 -  219
   90     O        2pz      222 +  223
   91     O        3d0      228 +  229
   92     O        3d1+     230 -  231
   93     O        3d2+     232 +  233
   94     O        3d0      238 +  239
   95     O        3d1+     240 -  241
   96     O        3d2+     242 +  243
   97     H        1s       244 +  245
   98     H        1s       246 +  247
   99     H        1s       248 +  249
  100     H        2px      250 -  251
  101     H        2pz      254 +  255
  102     H        2px      256 -  257
  103     H        2pz      260 +  261
  104     H        1s       262 +  263
  105     H        1s       264 +  265
  106     H        1s       266 +  267
  107     H        2px      268 -  269
  108     H        2pz      272 +  273
  109     H        2px      274 -  275
  110     H        2pz      278 +  279
  111     H        1s       280
  112     H        1s       281
  113     H        1s       282
  114     H        2pz      285
  115     H        2pz      288


  Symmetry  B1 ( 2)

  116     C        2px        6
  117     C        2px        9
  118     C        2px       12
  119     C        2px       15
  120     C        3d1+      21
  121     C        3d1+      26
  122     C        1s        28 -   29
  123     C        1s        30 -   31
  124     C        1s        32 -   33
  125     C        1s        34 -   35
  126     C        1s        36 -   37
  127     C        2px       38 +   39
  128     C        2pz       42 -   43
  129     C        2px       44 +   45
  130     C        2pz       48 -   49
  131     C        2px       50 +   51
  132     C        2pz       54 -   55
  133     C        2px       56 +   57
  134     C        2pz       60 -   61
  135     C        3d0       66 -   67
  136     C        3d1+      68 +   69
  137     C        3d2+      70 -   71
  138     C        3d0       76 -   77
  139     C        3d1+      78 +   79
  140     C        3d2+      80 -   81
  141     C        1s        82 -   83
  142     C        1s        84 -   85
  143     C        1s        86 -   87
  144     C        1s        88 -   89
  145     C        1s        90 -   91
  146     C        2px       92 +   93
  147     C        2pz       96 -   97
  148     C        2px       98 +   99
  149     C        2pz      102 -  103
  150     C        2px      104 +  105
  151     C        2pz      108 -  109
  152     C        2px      110 +  111
  153     C        2pz      114 -  115
  154     C        3d0      120 -  121
  155     C        3d1+     122 +  123
  156     C        3d2+     124 -  125
  157     C        3d0      130 -  131
  158     C        3d1+     132 +  133
  159     C        3d2+     134 -  135
  160     C        2px      141
  161     C        2px      144
  162     C        2px      147
  163     C        2px      150
  164     C        3d1+     156
  165     C        3d1+     161
  166     N        2px      168
  167     N        2px      171
  168     N        2px      174
  169     N        2px      177
  170     N        3d1+     183
  171     N        3d1+     188
  172     O        1s       190 -  191
  173     O        1s       192 -  193
  174     O        1s       194 -  195
  175     O        1s       196 -  197
  176     O        1s       198 -  199
  177     O        2px      200 +  201
  178     O        2pz      204 -  205
  179     O        2px      206 +  207
  180     O        2pz      210 -  211
  181     O        2px      212 +  213
  182     O        2pz      216 -  217
  183     O        2px      218 +  219
  184     O        2pz      222 -  223
  185     O        3d0      228 -  229
  186     O        3d1+     230 +  231
  187     O        3d2+     232 -  233
  188     O        3d0      238 -  239
  189     O        3d1+     240 +  241
  190     O        3d2+     242 -  243
  191     H        1s       244 -  245
  192     H        1s       246 -  247
  193     H        1s       248 -  249
  194     H        2px      250 +  251
  195     H        2pz      254 -  255
  196     H        2px      256 +  257
  197     H        2pz      260 -  261
  198     H        1s       262 -  263
  199     H        1s       264 -  265
  200     H        1s       266 -  267
  201     H        2px      268 +  269
  202     H        2pz      272 -  273
  203     H        2px      274 +  275
  204     H        2pz      278 -  279
  205     H        2px      283
  206     H        2px      286


  Symmetry  B2 ( 3)

  207     C        2py        7
  208     C        2py       10
  209     C        2py       13
  210     C        2py       16
  211     C        3d1-      19
  212     C        3d1-      24
  213     C        2py       40 +   41
  214     C        2py       46 +   47
  215     C        2py       52 +   53
  216     C        2py       58 +   59
  217     C        3d2-      62 -   63
  218     C        3d1-      64 +   65
  219     C        3d2-      72 -   73
  220     C        3d1-      74 +   75
  221     C        2py       94 +   95
  222     C        2py      100 +  101
  223     C        2py      106 +  107
  224     C        2py      112 +  113
  225     C        3d2-     116 -  117
  226     C        3d1-     118 +  119
  227     C        3d2-     126 -  127
  228     C        3d1-     128 +  129
  229     C        2py      142
  230     C        2py      145
  231     C        2py      148
  232     C        2py      151
  233     C        3d1-     154
  234     C        3d1-     159
  235     N        2py      169
  236     N        2py      172
  237     N        2py      175
  238     N        2py      178
  239     N        3d1-     181
  240     N        3d1-     186
  241     O        2py      202 +  203
  242     O        2py      208 +  209
  243     O        2py      214 +  215
  244     O        2py      220 +  221
  245     O        3d2-     224 -  225
  246     O        3d1-     226 +  227
  247     O        3d2-     234 -  235
  248     O        3d1-     236 +  237
  249     H        2py      252 +  253
  250     H        2py      258 +  259
  251     H        2py      270 +  271
  252     H        2py      276 +  277
  253     H        2py      284
  254     H        2py      287


  Symmetry  A2 ( 4)

  255     C        3d2-      18
  256     C        3d2-      23
  257     C        2py       40 -   41
  258     C        2py       46 -   47
  259     C        2py       52 -   53
  260     C        2py       58 -   59
  261     C        3d2-      62 +   63
  262     C        3d1-      64 -   65
  263     C        3d2-      72 +   73
  264     C        3d1-      74 -   75
  265     C        2py       94 -   95
  266     C        2py      100 -  101
  267     C        2py      106 -  107
  268     C        2py      112 -  113
  269     C        3d2-     116 +  117
  270     C        3d1-     118 -  119
  271     C        3d2-     126 +  127
  272     C        3d1-     128 -  129
  273     C        3d2-     153
  274     C        3d2-     158
  275     N        3d2-     180
  276     N        3d2-     185
  277     O        2py      202 -  203
  278     O        2py      208 -  209
  279     O        2py      214 -  215
  280     O        2py      220 -  221
  281     O        3d2-     224 +  225
  282     O        3d1-     226 -  227
  283     O        3d2-     234 +  235
  284     O        3d1-     236 -  237
  285     H        2py      252 -  253
  286     H        2py      258 -  259
  287     H        2py      270 -  271
  288     H        2py      276 -  277

  Symmetries of electric field:  B1 (2)  B2 (3)  A1 (1)

  Symmetries of magnetic field:  B2 (3)  B1 (2)  A2 (4)


                     .---------------------------------------.
                     | Starting in Integral Section (HERMIT) |
                     `---------------------------------------'



 ***************************************************************************************
 ****************** Output from **INTEGRALS input processing (HERMIT) ******************
 ***************************************************************************************


 - Using defaults, no **INTEGRALS input found

 Default print level:        1

 Calculation of one-electron Hamiltonian integrals.

 Center of mass  (bohr):      0.000000000000      0.000000000000     -0.399149731458
 Operator center (bohr):      0.000000000000      0.000000000000      0.000000000000
 Gauge origin    (bohr):      0.000000000000      0.000000000000      0.000000000000
 Dipole origin   (bohr):      0.000000000000      0.000000000000      0.000000000000


     ************************************************************************
     ************************** Output from HERINT **************************
     ************************************************************************



                      Nuclear contribution to dipole moments
                      --------------------------------------

                 au               Debye          C m (/(10**-30)

      z    -33.34797095       -84.76208203      -282.73587199


  Time used in GABGEN     is       0.11 seconds
  Total CPU  time used in HERMIT:   0.42 seconds
  Total wall time used in HERMIT:   0.43 seconds


                        .----------------------------------.
                        | End of Integral Section (HERMIT) |
                        `----------------------------------'



                   .--------------------------------------------.
                   | Starting in Wave Function Section (SIRIUS) |
                   `--------------------------------------------'


 *** Output from Huckel module :

     Using EWMO model:          F
     Using EHT  model:          T
     Number of Huckel orbitals each symmetry:   24   17    6    3

 Huckel EHT eigenvalues for symmetry :  1
          -20.695293     -15.706037     -11.415011     -11.394605     -11.376753
          -11.362600      -1.749085      -1.553996      -1.193024      -0.939943
           -0.816389      -0.785843      -0.641941      -0.588047      -0.490737
           -0.428482      -0.331103      -0.247534      -0.225981      -0.213747
           -0.205816      -0.178739      -0.166289      -0.160474

 Huckel EHT eigenvalues for symmetry :  2
          -20.701226     -11.396477     -11.377859      -1.406740      -1.202753
           -0.879402      -0.645842      -0.573482      -0.526365      -0.478479
           -0.414733      -0.269053      -0.213148      -0.202811      -0.176231
           -0.165370      -0.163258

 Huckel EHT eigenvalues for symmetry :  3
           -0.800399      -0.671116      -0.465009      -0.384602      -0.281797
           -0.236543

 Huckel EHT eigenvalues for symmetry :  4
           -0.594137      -0.460082      -0.288816

 **********************************************************************
 *SIRIUS* a direct, restricted step, second order MCSCF program       *
 **********************************************************************

 
     Date and time (Linux)  : Sat Feb  8 11:45:30 2020
     Host name              : Lab2-333-NPs                            

 Title lines from ".mol" input file:
      nitrobenzene                                                           
      Generated by the Dalton Input File Plugin for Avogadro                 

 Print level on unit LUPRI =   2 is   0
 Print level on unit LUW4  =   2 is   5

@    MC-SCF optimization.

@    Multi-configurational response calculation.
@              Type: complete active space calculation (CAS).

@    This is a combination run starting with
@              a restricted, closed shell Hartree-Fock calculation
@              an MP2 calculation

 Fock matrices are calculated directly without use of integrals on disk.

 Initial molecular orbitals are obtained according to
 ".MOSTART EHT   " input option

     Wave function specification
     ============================
@    Wave function type        --- MC-SCF ---
@    Number of closed shell electrons          54
@    Number of electrons in active shells      10
@    Total charge of the molecule               0

@    Spin multiplicity and 2 M_S                3         2
@    Total number of symmetries                 4 (point group: C2v)
@    Reference state symmetry                   1 (irrep name : A1 )

     Orbital specifications
     ======================
@    Abelian symmetry species          All |    1    2    3    4
@                                          |  A1   B1   B2   A2 
                                       --- |  ---  ---  ---  ---
@    Inactive orbitals                  27 |   15   10    2    0
@    Active orbitals                     7 |    1    1    2    3
@    Secondary orbitals                254 |   99   80   44   31
@    Total number of orbitals          288 |  115   91   48   34
@    Number of basis functions         288 |  115   91   48   34

      ** Automatic occupation of RHF orbitals **

      -- Initial occupation of symmetries is determined from extended Huckel guess.           
      -- Initial occupation of symmetries is :
@    Occupied SCF orbitals              32 |   16   11    3    2

     Optimization information
     ========================
@    Number of determinants                  56
@    Number of orbital rotations           2762
     ------------------------------------------
@    Total number of variables             2818

     Maximum number of macro iterations      40
     Maximum number of micro iterations     960
     Threshold for MCSCF gradient      1.00D-05
     Number of initial trial vectors          2
     Number of initial CI iterations          3
     Number of simultaneous trial vectors     2

@    This calculation converges to state no.   2 for the specified symmetry and spin species.

     Maximum number of NEO/NR iterations  24

    INFORMATION: Switched to "new" integral transformation (from 1988 ;-) )
    because more than 255 basis functions.


 ***********************************************
 ***** DIIS acceleration of SCF iterations *****
 ***********************************************

 C1-DIIS algorithm; max error vectors =    8

 Automatic occupation of symmetries with  64 electrons.

 Iter     Total energy    Error norm  Delta(E)    SCF occupation
 -----------------------------------------------------------------------------
   1  Screening settings (-IFTHRS, JTDIIS, DIFDEN, times)   -8    1    T  2.86D+01  2.86D+01
@  1  -432.264520201       6.46D+00  -4.32D+02    16  11   3   2
      Virial theorem: -V/T =      1.998665
@    MULPOP   C       0.33; C   _1  0.26; C   _2  0.26; C   _1  0.23; C   _2  0.23; C       0.36; N       1.31; O   _1 -1.02; O   _2 -1.02; H   _1 -0.20; 
@             H   _2 -0.20; H   _1 -0.18; H   _2 -0.18; H      -0.19; 
   1  Level shift: doubly occupied orbital energies shifted by -2.00D-01
 -----------------------------------------------------------------------------
   2  Screening settings (-IFTHRS, JTDIIS, DIFDEN, times)   -8    2    T  2.84D+01  2.84D+01
@  2  -433.845734170       2.91D+00  -1.58D+00    16  11   3   2
      Virial theorem: -V/T =      2.001465
@    MULPOP   C       0.89; C   _1  0.36; C   _2  0.36; C   _1  0.36; C   _2  0.36; C       0.36; N       0.36; O   _1 -0.52; O   _2 -0.52; H   _1 -0.40; 
@             H   _2 -0.40; H   _1 -0.40; H   _2 -0.40; H      -0.40; 
   2  Level shift: doubly occupied orbital energies shifted by -1.00D-01
 -----------------------------------------------------------------------------
   3  Screening settings (-IFTHRS, JTDIIS, DIFDEN, times)   -8    3    T  2.85D+01  2.85D+01
@  3  -434.206303993       7.13D-01  -3.61D-01    16  11   3   2
      Virial theorem: -V/T =      2.000874
@    MULPOP   C       1.62; C   _1  0.26; C   _2  0.26; C   _1  0.44; C   _2  0.44; C       0.29; N       0.69; O   _1 -0.89; O   _2 -0.89; H   _1 -0.46; 
@             H   _2 -0.46; H   _1 -0.44; H   _2 -0.44; H      -0.44; 
   3  Level shift: doubly occupied orbital energies shifted by -2.50D-02
 -----------------------------------------------------------------------------
   4  Screening settings (-IFTHRS, JTDIIS, DIFDEN, times)   -8    4    T  2.80D+01  2.80D+01
@  4  -434.231673219       1.84D-01  -2.54D-02    16  11   3   2
      Virial theorem: -V/T =      2.002645
@    MULPOP   C       1.70; C   _1  0.21; C   _2  0.21; C   _1  0.52; C   _2  0.52; C       0.28; N       0.55; O   _1 -0.85; O   _2 -0.85; H   _1 -0.46; 
@             H   _2 -0.46; H   _1 -0.45; H   _2 -0.45; H      -0.46; 
   4  Level shift: doubly occupied orbital energies shifted by -1.25D-02
 -----------------------------------------------------------------------------
   5  Screening settings (-IFTHRS, JTDIIS, DIFDEN, times)  -10    5    F  2.87D+01  2.87D+01
@  5  -434.234307450       5.49D-02  -2.63D-03    16  11   3   2
      Virial theorem: -V/T =      2.002067
@    MULPOP   C       1.73; C   _1  0.19; C   _2  0.19; C   _1  0.51; C   _2  0.51; C       0.26; N       0.55; O   _1 -0.86; O   _2 -0.86; H   _1 -0.45; 
@             H   _2 -0.45; H   _1 -0.44; H   _2 -0.44; H      -0.44; 
 -----------------------------------------------------------------------------
   6  Screening settings (-IFTHRS, JTDIIS, DIFDEN, times)  -10    6    T  2.85D+01  2.85D+01
@  6  -434.234643871       1.53D-02  -3.36D-04    16  11   3   2
      Virial theorem: -V/T =      2.001990
@    MULPOP   C       1.74; C   _1  0.18; C   _2  0.18; C   _1  0.52; C   _2  0.52; C       0.26; N       0.53; O   _1 -0.86; O   _2 -0.86; H   _1 -0.44; 
@             H   _2 -0.44; H   _1 -0.44; H   _2 -0.44; H      -0.44; 
 -----------------------------------------------------------------------------
   7  Screening settings (-IFTHRS, JTDIIS, DIFDEN, times)  -13    7    F  2.87D+01  2.87D+01
@  7  -434.234676655       6.25D-03  -3.28D-05    16  11   3   2
      Virial theorem: -V/T =      2.002026
@    MULPOP   C       1.75; C   _1  0.18; C   _2  0.18; C   _1  0.51; C   _2  0.51; C       0.26; N       0.53; O   _1 -0.86; O   _2 -0.86; H   _1 -0.44; 
@             H   _2 -0.44; H   _1 -0.44; H   _2 -0.44; H      -0.44; 
 -----------------------------------------------------------------------------
   8  Screening settings (-IFTHRS, JTDIIS, DIFDEN, times)  -13    8    T  2.87D+01  2.87D+01
@  8  -434.234681753       2.13D-03  -5.10D-06    16  11   3   2
      Virial theorem: -V/T =      2.002014
@    MULPOP   C       1.75; C   _1  0.18; C   _2  0.18; C   _1  0.51; C   _2  0.51; C       0.26; N       0.53; O   _1 -0.86; O   _2 -0.86; H   _1 -0.44; 
@             H   _2 -0.44; H   _1 -0.44; H   _2 -0.44; H      -0.44; 
 -----------------------------------------------------------------------------
   9  Screening settings (-IFTHRS, JTDIIS, DIFDEN, times)  -13    9    T  2.85D+01  2.85D+01
@  9  -434.234682311       6.61D-04  -5.58D-07    16  11   3   2
      Virial theorem: -V/T =      2.002011
@    MULPOP   C       1.75; C   _1  0.18; C   _2  0.18; C   _1  0.51; C   _2  0.51; C       0.26; N       0.53; O   _1 -0.86; O   _2 -0.86; H   _1 -0.44; 
@             H   _2 -0.44; H   _1 -0.44; H   _2 -0.44; H      -0.44; 
 -----------------------------------------------------------------------------
  10  Screening settings (-IFTHRS, JTDIIS, DIFDEN, times)  -13   10    T  2.86D+01  2.86D+01
@ 10  -434.234682365       2.17D-04  -5.39D-08    16  11   3   2
      Virial theorem: -V/T =      2.002012
@    MULPOP   C       1.75; C   _1  0.18; C   _2  0.18; C   _1  0.51; C   _2  0.51; C       0.26; N       0.53; O   _1 -0.86; O   _2 -0.86; H   _1 -0.44; 
@             H   _2 -0.44; H   _1 -0.44; H   _2 -0.44; H      -0.44; 
 -----------------------------------------------------------------------------
  11  Screening settings (-IFTHRS, JTDIIS, DIFDEN, times)  -13   11    T  2.84D+01  2.84D+01
@ 11  -434.234682373       8.15D-05  -8.25D-09    16  11   3   2
      Virial theorem: -V/T =      2.002012
@    MULPOP   C       1.75; C   _1  0.18; C   _2  0.18; C   _1  0.51; C   _2  0.51; C       0.26; N       0.53; O   _1 -0.86; O   _2 -0.86; H   _1 -0.44; 
@             H   _2 -0.44; H   _1 -0.44; H   _2 -0.44; H      -0.44; 
 -----------------------------------------------------------------------------
  12  Screening settings (-IFTHRS, JTDIIS, DIFDEN, times)  -13   12    T  2.86D+01  2.86D+01
@ 12  -434.234682374       3.36D-05  -1.38D-09    16  11   3   2
      Virial theorem: -V/T =      2.002012
@    MULPOP   C       1.75; C   _1  0.18; C   _2  0.18; C   _1  0.51; C   _2  0.51; C       0.26; N       0.53; O   _1 -0.86; O   _2 -0.86; H   _1 -0.44; 
@             H   _2 -0.44; H   _1 -0.44; H   _2 -0.44; H      -0.44; 
 -----------------------------------------------------------------------------
  13  Screening settings (-IFTHRS, JTDIIS, DIFDEN, times)  -13   13    T  2.85D+01  2.85D+01
@ 13  -434.234682374       1.88D-05  -2.12D-10    16  11   3   2
      Virial theorem: -V/T =      2.002012
@    MULPOP   C       1.75; C   _1  0.18; C   _2  0.18; C   _1  0.51; C   _2  0.51; C       0.26; N       0.53; O   _1 -0.86; O   _2 -0.86; H   _1 -0.44; 
@             H   _2 -0.44; H   _1 -0.44; H   _2 -0.44; H      -0.44; 
 -----------------------------------------------------------------------------
  14  Screening settings (-IFTHRS, JTDIIS, DIFDEN, times)  -13   14    T  2.87D+01  2.87D+01
@ 14  -434.234682375       6.61D-06  -9.57D-11    16  11   3   2
      Virial theorem: -V/T =      2.002012
@    MULPOP   C       1.75; C   _1  0.18; C   _2  0.18; C   _1  0.51; C   _2  0.51; C       0.26; N       0.53; O   _1 -0.86; O   _2 -0.86; H   _1 -0.44; 
@             H   _2 -0.44; H   _1 -0.44; H   _2 -0.44; H      -0.44; 
 -----------------------------------------------------------------------------
  15  Screening settings (-IFTHRS, JTDIIS, DIFDEN, times)  -13   15    T  2.83D+01  2.83D+01
@ 15  -434.234682375       2.79D-06  -1.84D-11    16  11   3   2
      Virial theorem: -V/T =      2.002012
@    MULPOP   C       1.75; C   _1  0.18; C   _2  0.18; C   _1  0.51; C   _2  0.51; C       0.26; N       0.53; O   _1 -0.86; O   _2 -0.86; H   _1 -0.44; 
@             H   _2 -0.44; H   _1 -0.44; H   _2 -0.44; H      -0.44; 
 -----------------------------------------------------------------------------
  16  Screening settings (-IFTHRS, JTDIIS, DIFDEN, times)  -13   16    T  2.84D+01  2.84D+01
@ 16  -434.234682375       1.26D-06  -5.68D-13    16  11   3   2
      Virial theorem: -V/T =      2.002012
@    MULPOP   C       1.75; C   _1  0.18; C   _2  0.18; C   _1  0.51; C   _2  0.51; C       0.26; N       0.53; O   _1 -0.86; O   _2 -0.86; H   _1 -0.44; 
@             H   _2 -0.44; H   _1 -0.44; H   _2 -0.44; H      -0.44; 
 -----------------------------------------------------------------------------
  17  Screening settings (-IFTHRS, JTDIIS, DIFDEN, times)  -13   17    T  2.81D+01  2.81D+01
@ 17  -434.234682375       5.08D-07   2.05D-12    16  11   3   2

@ *** DIIS converged in  17 iterations !
@     Converged SCF energy, gradient:   -434.234682374562    5.08D-07
    - total time used in SIRFCK :              0.00 seconds

 --- Writing SIRIFC interface file

 CPU and wall time for SCF :     484.953     485.207


 ----- Output from SIRIUS MP2 module -----

 Reference: H.J.Aa.Jensen, P.Jorgensen, H.Agren, and J.Olsen,
            J. Chem. Phys. 88, 3834 (1988); 89, 5354 (1988)

 Checking that the closed shell orbitals are canonical Hartree-Fock orbitals

    Number of electrons  :   64
    Closed shell orbitals:   16   11    3    2

 Generating Fock matrix

 Hartree-Fock electronic energy:        -846.882469192768
 Hartree-Fock total      energy:        -434.234682374564

 Hartree-Fock orbital energies, symmetry 1 ( A1 ),   16 occupied SCF orbitals

       -20.61789564   -15.86432265   -11.31742106   -11.28240210   -11.28019740
       -11.27281579    -1.61194226    -1.20033316    -1.09238126    -0.96198927
        -0.83402477    -0.78443674    -0.70867492    -0.65127018    -0.55518732
        -0.49362047     0.02710478     0.04428395     0.06226659     0.10485043
         0.13087800     0.13514885     0.15159730     0.15646219     0.17314005
         0.17996726     0.21577784     0.25878479     0.28722091     0.30204695
         0.30995595     0.33892191     0.35166971     0.35496707     0.37036465
         0.39526869     0.41251765     0.43608895     0.46070872     0.48596791
         0.50887906     0.56057614     0.57934879     0.58473182     0.63115583
         0.65103597     0.66018343     0.67827063     0.72416804     0.73226083
         0.74317810     0.83833319     0.88146323     0.92686073     0.95925735
         0.96517553     1.00850461     1.05333474     1.08109229     1.13860532
         1.28087057     1.36349682     1.37776130     1.44661384     1.49298239
         1.51685817     1.55350117     1.57192685     1.59700970     1.61722325
         1.68084626     1.72274465     1.74716641     1.76723498     1.86874230
         1.94125891     1.95843229     2.00718745     2.01748034     2.12320026
         2.15145830     2.23701628     2.31464694     2.36595989     2.42191926
         2.44869661     2.55747999     2.70760769     2.77648443     2.84350330
         2.88282581     2.97522181     3.03952701     3.15630567     3.27458538
         3.43394640     3.76611673     3.94990999     4.09145379     4.25733100
        19.80131938    20.33751422    20.45524202    20.62221571    23.35491585
        23.37449417    23.42805011    23.81693599    23.91481326    24.12428204
        27.08989488    31.25026098    35.81070349    39.70861479    39.88462537

 Hartree-Fock orbital energies, symmetry 2 ( B1 ),   11 occupied SCF orbitals

       -20.61794450   -11.28244096   -11.27292350    -1.41273236    -1.05440260
        -0.86648578    -0.73446831    -0.65785501    -0.62538061    -0.53110908
        -0.50161597     0.03635172     0.05991278     0.13047085     0.13377101
         0.15384550     0.17383488     0.18398534     0.21447294     0.26201298
         0.28967033     0.31428559     0.33363294     0.36304749     0.37060495
         0.39485425     0.42267311     0.43836450     0.47620981     0.56873658
         0.58021385     0.59319366     0.65018047     0.67332964     0.68106306
         0.70283250     0.75494383     0.76228335     0.83013365     0.84334132
         0.86663998     0.93440656     1.01440912     1.14086479     1.20677359
         1.25252082     1.30850287     1.41005805     1.42411961     1.48724836
         1.56912802     1.59313166     1.60348192     1.63831198     1.70774121
         1.76122113     1.77244867     1.79012704     1.89132479     1.93108057
         1.99587375     2.08638922     2.22947912     2.25882703     2.33767001
         2.34857565     2.38918585     2.53761344     2.57180179     2.77238396
         2.89969574     2.93319434     3.08779991     3.27288431     3.32720061
         3.41323521     3.75498313     3.85686050     4.22302199    20.30561688
        20.48546922    22.91144301    23.34434340    23.39408157    23.93962660
        24.12264155    24.31026963    31.44903116    35.53819036    39.63432386
        40.00659224

 Hartree-Fock orbital energies, symmetry 3 ( B2 ),    3 occupied SCF orbitals

        -0.72178048    -0.53603442    -0.37655921     0.03546495     0.10753429
         0.12572439     0.13972588     0.18446071     0.19317749     0.24391962
         0.32126050     0.34323991     0.37240408     0.44479920     0.53390295
         0.58859314     0.64403618     0.71337468     0.79047020     0.83792717
         0.87331408     0.92279769     0.92777523     0.98525485     1.14680292
         1.28763399     1.30310255     1.47135361     1.47411176     1.61793936
         1.67431216     1.70937811     1.84727736     1.89786634     1.97131835
         2.08345237     2.17998304     2.29628138     2.53637699     2.67813284
         3.67328315     3.77096419    22.54534669    22.69245799    22.82950486
        23.02800841    30.55249931    39.41836353

 Hartree-Fock orbital energies, symmetry 4 ( A2 ),    2 occupied SCF orbitals

        -0.46109437    -0.36838902     0.08689655     0.13191392     0.18636691
         0.29716595     0.41403678     0.49119157     0.54946132     0.66295838
         0.73708154     0.89645581     0.90320303     0.94598009     1.03443846
         1.09317704     1.21338633     1.23910341     1.33123383     1.49096729
         1.67360858     1.69020742     1.86208610     2.01095404     2.11869548
         2.21503776     2.35651331     2.46632870     2.60737101     3.66452537
         4.00847745    22.69380133    22.86060012    39.49847210

    E(LUMO) :     0.02710478   (in symmetry 1)
  - E(HOMO) :    -0.36838902   (in symmetry 4)
  --------------------------
    gap     :     0.39549380

---> (Re)generating AOTWOINT


     ************************************************************************
     ************************** Output from HERINT **************************
     ************************************************************************


 Threshold for neglecting two-electron integrals:  1.00D-12
 HERMIT - Number of two-electron integrals written:   203725702 ( 23.5% )
 HERMIT - Megabytes written:                           3109.904

  Time used in TWOINT     is      39.23 seconds

 2-el. integral transformation level 5: Total CPU and WALL times (sec)     415.000     416.963

 MP2 move   0.994713 electrons to unoccupied HF orbitals


@   Hartree-Fock total energy   :          -434.2346823746
@   + MP2 contribution          :            -1.7266713221
@   = MP2 second order energy   :          -435.9613536967

 Natural orbital occupation numbers, symmetry 1 (irrep A1 )
 Sum =    32.00802585; RHF =    32.00000000; Difference =     0.00802585

         1.99928995     1.99907557     1.99876146     1.99875656     1.99875182
         1.99874785     1.98687611     1.98411342     1.97942397     1.97231408
         1.96891559     1.96827174     1.96522746     1.96213396     1.95511297
         1.94578138     0.04353823     0.03586197     0.02553273     0.02382992
         0.01918555     0.01854474     0.01735962     0.01648478     0.01380121
         0.01266631     0.01158467     0.00983182     0.00854040     0.00788173
         0.00734955     0.00668331     0.00559550     0.00453898     0.00306965
         0.00294426     0.00268982     0.00260904     0.00221174     0.00202235
         0.00184707     0.00167206     0.00161805     0.00131519     0.00121355
         0.00116120     0.00105987     0.00096386     0.00071743     0.00065308
         0.00061275     0.00053370     0.00049999     0.00046630     0.00043869
         0.00041706     0.00040169     0.00038686     0.00037614     0.00034958
         0.00034112     0.00032300     0.00031128     0.00028918     0.00026761
         0.00026069     0.00022467     0.00021358     0.00020383     0.00019593
         0.00018663     0.00018592     0.00017627     0.00017069     0.00016701
         0.00016148     0.00015565     0.00014931     0.00014055     0.00013335
         0.00012593     0.00012343     0.00012201     0.00011067     0.00010523
         0.00009368     0.00007808     0.00007154     0.00005784     0.00005389
         0.00005127     0.00003853     0.00003459     0.00002842     0.00002006
         0.00001795     0.00001446     0.00001292     0.00001150     0.00000936
         0.00000879     0.00000850     0.00000700     0.00000310     0.00000294
         0.00000201     0.00000102     0.00000056     0.00000036     0.00000018
         0.00000016     0.00000001    -0.00000010    -0.00000052    -0.00006315

 Natural orbital occupation numbers, symmetry 2 (irrep B1 )
 Sum =    21.95335940; RHF =    22.00000000; Difference =    -0.04664060

         1.99928984     1.99875719     1.99875083     1.98421738     1.98002025
         1.97273235     1.96268941     1.96058595     1.95478949     1.95425747
         1.94618397     0.03766262     0.02541285     0.02379325     0.01900905
         0.01660821     0.01595496     0.01522664     0.01125162     0.01054746
         0.00912299     0.00770625     0.00582398     0.00540116     0.00514779
         0.00407336     0.00313010     0.00271453     0.00239186     0.00213023
         0.00171493     0.00162451     0.00151993     0.00132040     0.00118533
         0.00102421     0.00097214     0.00069923     0.00064192     0.00056995
         0.00049336     0.00044078     0.00042359     0.00037336     0.00035398
         0.00033897     0.00030860     0.00029368     0.00027045     0.00025826
         0.00023865     0.00021155     0.00019831     0.00018760     0.00018266
         0.00017801     0.00017053     0.00016939     0.00016026     0.00015367
         0.00014415     0.00013386     0.00012922     0.00012599     0.00011901
         0.00011285     0.00009471     0.00008905     0.00006807     0.00005588
         0.00004613     0.00003730     0.00003084     0.00002915     0.00002375
         0.00001511     0.00001432     0.00001145     0.00001058     0.00000868
         0.00000471     0.00000354     0.00000182     0.00000124     0.00000058
         0.00000028     0.00000014    -0.00000004    -0.00000019    -0.00000067
        -0.00001339

 Natural orbital occupation numbers, symmetry 3 (irrep B2 )
 Sum =     6.07742628; RHF =     6.00000000; Difference =     0.07742628

         1.95066375     1.94434670     1.90902896     0.10129581     0.06753585
         0.02963398     0.01052102     0.01032563     0.00873518     0.00790168
         0.00615503     0.00526394     0.00446751     0.00387236     0.00342743
         0.00307568     0.00153985     0.00144694     0.00099589     0.00089175
         0.00086852     0.00066296     0.00059734     0.00049379     0.00047306
         0.00041898     0.00033458     0.00029076     0.00024807     0.00022907
         0.00019676     0.00019585     0.00018988     0.00017622     0.00015398
         0.00013002     0.00012105     0.00011159     0.00010117     0.00008346
         0.00008081     0.00006259     0.00003621     0.00002015     0.00001050
         0.00000753     0.00000521     0.00000122

 Natural orbital occupation numbers, symmetry 4 (irrep A2 )
 Sum =     3.96118847; RHF =     4.00000000; Difference =    -0.03881153

         1.91633757     1.90852224     0.06664415     0.01451106     0.01041816
         0.00929833     0.00793047     0.00571207     0.00516722     0.00406725
         0.00357440     0.00152525     0.00118861     0.00093681     0.00077979
         0.00072909     0.00067550     0.00056501     0.00040797     0.00037099
         0.00033915     0.00029868     0.00021622     0.00019700     0.00016433
         0.00013357     0.00011672     0.00010337     0.00009364     0.00006957
         0.00005033     0.00002072     0.00001768     0.00000554

 Time used for MP2 natural orbitals :     447.562 CPU seconds,     449.577 wall seconds.

 CPU and wall time for MP2 :     447.562     449.577


        SIRIUS MCSCF optimization (SIROPT)
 ================================================


 Fock matrix screening setting for SIRCNO: IFTHRS =    9


 ----- Output from SIRIUS CI module (CICTL) -----




 2-el. integral transformation level 0: Total CPU and WALL times (sec)     101.750     101.821


 --- SIRCI.CIST1: plus combination of all degenerate
                 configurations is used as start vectors.


 (CIST1) 18 lowest diagonal elements:

 Element no. Config.no.    Active energy      Total energy

         1 :          1    -17.1191148655   -434.0020059484
         2 :         22    -17.0092830174   -433.8921741004
         3 :         28    -16.8565264687   -433.7394175517
         4 :          6    -16.8394564722   -433.7223475551
         5 :          5    -16.8356747237   -433.7185658067
         6 :          3    -16.8012499610   -433.6841410440
         7 :         24    -16.7464804908   -433.6293715737
         8 :          2    -16.7454164021   -433.6283074851
         9 :          7    -16.7296077881   -433.6124988711
        10 :         23    -16.7266909484   -433.6095820313
        11 :         25    -16.7018097969   -433.5847008799
        12 :         19    -16.6522670882   -433.5351581712
        13 :         29    -16.5595827864   -433.4424738694
        14 :         12    -16.5476448206   -433.4305359035
        15 :         11    -16.5318685678   -433.4147596508
        16 :         27    -16.4246556570   -433.3075467400
        17 :         13    -16.4064319783   -433.2893230613
        18 :         26    -16.4047292765   -433.2876203595


 Convergence threshold for CI optimization :     0.00000500



 *** Reached maximum number of CI iterations:    3
              2 CI roots are not converged.


@ Final CI energies and residuals in symmetry 1 (irrep A1 )
@    1     -434.037889687913093       8.80D-03
@    2     -433.907197814348308       5.29D-03
@    3     -433.815523881779995       4.50D-02
@    4     -433.729500334596082       7.54D-02
@    5     -433.685272790571673       8.17D-02
@    6     -433.654842928718779       1.04D-01

   --- OUTPUT FROM SIRCNO     Keyword = FD+NO 


 Occupations of CAS natural orbitals:

 Symmetry  1 ( irrep A1  in C2v )

   1.999992466

 Symmetry  2 ( irrep B1  in C2v )

   1.999998040

 Symmetry  3 ( irrep B2  in C2v )

   1.007840828   0.992490595

 Symmetry  4 ( irrep A2  in C2v )

   1.993328416   1.963831748   0.042517907


 --- MACRO ITERATION  1 ---
 --------------------------

 2-el. integral transformation level 3: Total CPU and WALL times (sec)     103.094     103.112

 Fock matrix screening setting for this macro iteration: 10^( -9)

 Total MCSCF energy       :          -433.907197816127280  (MACRO    1)

 - Nuclear repulsion      :           412.647786818204793
 - Inactive energy        :          -829.530677901553645
 - Active energy          :           -17.024306732778431

 Norm of total gradient   :             1.333373260938
 -    of CI gradient      :             0.010575025502
 -    of orbital gradient :             1.333331324848
      Virial theorem: -V/T =      1.995193
@    MULPOP   C       1.75; C   _1  0.38; C   _2  0.38; C   _1  0.53; C   _2  0.53; C       0.59; N       0.10; O   _1 -0.94; O   _2 -0.94; H   _1 -0.49; 
@             H   _2 -0.49; H   _1 -0.47; H   _2 -0.47; H      -0.47; 

 (SIRNEO) iteration (  1,  4)
 Micro iteration termination criterion met, EVAL(ISTATE+1) = -1.05D-01

   --- OUTPUT FROM SIRCNO     Keyword = FD+NO 


 Occupations of CAS natural orbitals:

 Symmetry  1 ( irrep A1  in C2v )

   1.999959595

 Symmetry  2 ( irrep B1  in C2v )

   1.999955986

 Symmetry  3 ( irrep B2  in C2v )

   1.160896528   0.852046057

 Symmetry  4 ( irrep A2  in C2v )

   1.982901685   1.815318118   0.188922030


 --- MACRO ITERATION  2 ---
 --------------------------

 2-el. integral transformation level 3: Total CPU and WALL times (sec)     103.500     103.540

 Fock matrix screening setting for this macro iteration: 10^( -9)

 Total MCSCF energy       :          -433.997039733575264  (MACRO    2)

 - Nuclear repulsion      :           412.647786818204793
 - Inactive energy        :          -829.569625411015636
 - Active energy          :           -17.075201140764403

 Norm of total gradient   :             0.910141502674
 -    of CI gradient      :             0.086962380255
 -    of orbital gradient :             0.905977427594
      Virial theorem: -V/T =      1.997226
@    MULPOP   C       1.61; C   _1  0.35; C   _2  0.35; C   _1  0.51; C   _2  0.51; C       0.44; N       0.34; O   _1 -0.83; O   _2 -0.83; H   _1 -0.50; 
@             H   _2 -0.50; H   _1 -0.47; H   _2 -0.47; H      -0.50; 

 Residual norm when dim(red L) =  13
 NEO root     CSF        orbital          total
    2     0.09047707     0.06629784     0.11216730 converged

 (NEONEX) NEO vector is converged.

   --- OUTPUT FROM SIRCNO     Keyword = FD+NO 


 Occupations of CAS natural orbitals:

 Symmetry  1 ( irrep A1  in C2v )

   1.999941343

 Symmetry  2 ( irrep B1  in C2v )

   1.999930336

 Symmetry  3 ( irrep B2  in C2v )

   1.241786854   0.777985194

 Symmetry  4 ( irrep A2  in C2v )

   1.976272862   1.737407821   0.266675589


 --- MACRO ITERATION  3 ---
 --------------------------

 2-el. integral transformation level 3: Total CPU and WALL times (sec)     103.297     103.334

 Fock matrix screening setting for this macro iteration: 10^( -9)

 Total MCSCF energy       :          -434.056974130119897  (MACRO    3)

 - Nuclear repulsion      :           412.647786818204793
 - Inactive energy        :          -829.044005448207713
 - Active energy          :           -17.660755500116984

 Norm of total gradient   :             0.278060401413
 -    of CI gradient      :             0.076217259417
 -    of orbital gradient :             0.267410763061
      Virial theorem: -V/T =      2.001299
@    MULPOP   C       1.78; C   _1  0.20; C   _2  0.20; C   _1  0.55; C   _2  0.55; C       0.22; N       0.60; O   _1 -1.01; O   _2 -1.01; H   _1 -0.43; 
@             H   _2 -0.43; H   _1 -0.41; H   _2 -0.41; H      -0.40; 

 Residual norm when dim(red L) =  11
 NEO root     CSF        orbital          total
    2     0.04505040     0.01685678     0.04810083 converged

 (NEONEX) NEO vector is converged.

   --- OUTPUT FROM SIRCNO     Keyword = FD+NO 


 Occupations of CAS natural orbitals:

 Symmetry  1 ( irrep A1  in C2v )

   1.999890697

 Symmetry  2 ( irrep B1  in C2v )

   1.999906021

 Symmetry  3 ( irrep B2  in C2v )

   1.520359317   0.518349964

 Symmetry  4 ( irrep A2  in C2v )

   1.954666250   1.466938079   0.539889672


 --- MACRO ITERATION  4 ---
 --------------------------

 2-el. integral transformation level 3: Total CPU and WALL times (sec)     103.438     103.504

 Fock matrix screening setting for this macro iteration: 10^( -9)

 Total MCSCF energy       :          -434.060255597298749  (MACRO    4)

 - Nuclear repulsion      :           412.647786818204793
 - Inactive energy        :          -825.729533805840219
 - Active energy          :           -20.978508609663340

 Norm of total gradient   :             0.509987460344
 -    of CI gradient      :             0.068757519506
 -    of orbital gradient :             0.505331191615
      Virial theorem: -V/T =      2.000958
@    MULPOP   C       1.84; C   _1  0.16; C   _2  0.16; C   _1  0.53; C   _2  0.53; C       0.30; N       0.49; O   _1 -0.92; O   _2 -0.92; H   _1 -0.44; 
@             H   _2 -0.44; H   _1 -0.44; H   _2 -0.44; H      -0.41; 

 (SIRNEO) iteration (  4,  4)
 Micro iteration termination criterion met, EVAL(ISTATE+1) = -3.31D-03

   --- OUTPUT FROM SIRCNO     Keyword = FD+NO 


 Occupations of CAS natural orbitals:

 Symmetry  1 ( irrep A1  in C2v )

   1.999525118

 Symmetry  2 ( irrep B1  in C2v )

   1.999928366

 Symmetry  3 ( irrep B2  in C2v )

   1.531649609   0.506558671

 Symmetry  4 ( irrep A2  in C2v )

   1.956371984   1.455621066   0.550345186


 --- MACRO ITERATION  5 ---
 --------------------------

 2-el. integral transformation level 3: Total CPU and WALL times (sec)     103.766     103.833

 Fock matrix screening setting for this macro iteration: 10^( -9)

 Total MCSCF energy       :          -434.060849139846141  (MACRO    5)

 - Nuclear repulsion      :           412.647786818204793
 - Inactive energy        :          -815.592581982838055
 - Active energy          :           -31.116053975212864

 Norm of total gradient   :             0.482457190843
 -    of CI gradient      :             0.452814469336
 -    of orbital gradient :             0.166505247232
      Virial theorem: -V/T =      2.000757
@    MULPOP   C       1.83; C   _1  0.16; C   _2  0.16; C   _1  0.53; C   _2  0.53; C       0.30; N       0.50; O   _1 -0.92; O   _2 -0.92; H   _1 -0.44; 
@             H   _2 -0.44; H   _1 -0.44; H   _2 -0.44; H      -0.42; 

 (SIRSTP) Energy difference;
 actual, predicted and ratio:  -0.000593542547392  -0.006315394084357    0.093983

 (SIRSTP) step is too large -- backstep

   --- OUTPUT FROM SIRCNO     Keyword = FD+NO 


 Occupations of CAS natural orbitals:

 Symmetry  1 ( irrep A1  in C2v )

   1.999754547

 Symmetry  2 ( irrep B1  in C2v )

   1.999928730

 Symmetry  3 ( irrep B2  in C2v )

   1.515723811   0.521283072

 Symmetry  4 ( irrep A2  in C2v )

   1.957307678   1.471266832   0.534735331


 Optimization control: Step was too large, we backstep


 --- MACRO ITERATION  5 BACKSTEP NO.  1 ---

 2-el. integral transformation level 3: Total CPU and WALL times (sec)     103.203     103.203

 Fock matrix screening setting for this macro iteration: 10^( -9)

 Total MCSCF energy       :          -434.063041822929051  (MACRO    5)

 - Nuclear repulsion      :           412.647786818204793
 - Inactive energy        :          -819.004246292865901
 - Active energy          :           -27.706582348267968

 Norm of total gradient   :             0.280856525097
 -    of CI gradient      :             0.257029997360
 -    of orbital gradient :             0.113207632898
      Virial theorem: -V/T =      2.000769
@    MULPOP   C       1.84; C   _1  0.16; C   _2  0.16; C   _1  0.53; C   _2  0.53; C       0.30; N       0.50; O   _1 -0.92; O   _2 -0.92; H   _1 -0.44; 
@             H   _2 -0.44; H   _1 -0.44; H   _2 -0.44; H      -0.42; 

 (SIRNEO) iteration (  5,  2)
 Micro iteration termination criterion met, EVAL(ISTATE+1) = -3.55D-03

   --- OUTPUT FROM SIRCNO     Keyword = FD+NO 


 Occupations of CAS natural orbitals:

 Symmetry  1 ( irrep A1  in C2v )

   1.999998672

 Symmetry  2 ( irrep B1  in C2v )

   1.999927738

 Symmetry  3 ( irrep B2  in C2v )

   1.515942988   0.514918112

 Symmetry  4 ( irrep A2  in C2v )

   1.966503743   1.476198805   0.526509943


 --- MACRO ITERATION  6 ---
 --------------------------

 2-el. integral transformation level 3: Total CPU and WALL times (sec)     103.078     103.172

 Fock matrix screening setting for this macro iteration: 10^( -9)

 Total MCSCF energy       :          -434.065165094044005  (MACRO    6)

 - Nuclear repulsion      :           412.647786818204793
 - Inactive energy        :          -814.220257102537516
 - Active energy          :           -32.492694809711260

 Norm of total gradient   :             0.078144015278
 -    of CI gradient      :             0.049744739923
 -    of orbital gradient :             0.060265645054
      Virial theorem: -V/T =      2.000861
@    MULPOP   C       1.84; C   _1  0.17; C   _2  0.17; C   _1  0.52; C   _2  0.52; C       0.29; N       0.50; O   _1 -0.92; O   _2 -0.92; H   _1 -0.44; 
@             H   _2 -0.44; H   _1 -0.44; H   _2 -0.44; H      -0.42; 

 Residual norm when dim(red L) =  14
 NEO root     CSF        orbital          total
    1     0.07769697     0.05392282     0.09457531 converged

 (NEONEX) NEO auxiliary root no.  1 is converged.

 Residual norm when dim(red L) =  21
 NEO root     CSF        orbital          total
    2     0.00946162     0.00549253     0.01094030 converged

 (NEONEX) NEO vector is converged.

   --- OUTPUT FROM SIRCNO     Keyword = FD+NO 


 Occupations of CAS natural orbitals:

 Symmetry  1 ( irrep A1  in C2v )

   1.999999825

 Symmetry  2 ( irrep B1  in C2v )

   1.999947536

 Symmetry  3 ( irrep B2  in C2v )

   1.540307691   0.485013635

 Symmetry  4 ( irrep A2  in C2v )

   1.973898996   1.421255664   0.579576653


 --- MACRO ITERATION  7 ---
 --------------------------

 2-el. integral transformation level 3: Total CPU and WALL times (sec)     103.234     103.310

 Fock matrix screening setting for this macro iteration: 10^( -9)

 Total MCSCF energy       :          -434.068431899600682  (MACRO    7)

 - Nuclear repulsion      :           412.647786818204793
 - Inactive energy        :          -814.856247783710842
 - Active energy          :           -31.859970934094633

 Norm of total gradient   :             0.020750105539
 -    of CI gradient      :             0.010602276013
 -    of orbital gradient :             0.017837001520
      Virial theorem: -V/T =      2.000816
@    MULPOP   C       1.86; C   _1  0.17; C   _2  0.17; C   _1  0.51; C   _2  0.51; C       0.31; N       0.50; O   _1 -0.92; O   _2 -0.92; H   _1 -0.44; 
@             H   _2 -0.44; H   _1 -0.44; H   _2 -0.44; H      -0.42; 

 Residual norm when dim(red L) =  14
 NEO root     CSF        orbital          total
    1     0.05346187     0.07377565     0.09110993 converged

 (NEONEX) NEO auxiliary root no.  1 is converged.

 Residual norm when dim(red L) =  26
 NEO root     CSF        orbital          total
    2     0.00312289     0.00195770     0.00368579 converged

 (NEONEX) NEO vector is converged.

   --- OUTPUT FROM SIRCNO     Keyword = FD+NO 


 Occupations of CAS natural orbitals:

 Symmetry  1 ( irrep A1  in C2v )

   1.999999812

 Symmetry  2 ( irrep B1  in C2v )

   1.999929558

 Symmetry  3 ( irrep B2  in C2v )

   1.571206360   0.445977164

 Symmetry  4 ( irrep A2  in C2v )

   1.982063506   1.352465467   0.648358133


 --- MACRO ITERATION  8 ---
 --------------------------

 2-el. integral transformation level 3: Total CPU and WALL times (sec)     103.453     103.550

 Fock matrix screening setting for this macro iteration: 10^( -9)

 Total MCSCF energy       :          -434.069435884510256  (MACRO    8)

 - Nuclear repulsion      :           412.647786818204793
 - Inactive energy        :          -814.020192338273773
 - Active energy          :           -32.697030364441261

 Norm of total gradient   :             0.015991056543
 -    of CI gradient      :             0.008782853539
 -    of orbital gradient :             0.013363209684
      Virial theorem: -V/T =      2.000791
@    MULPOP   C       1.88; C   _1  0.16; C   _2  0.16; C   _1  0.49; C   _2  0.49; C       0.32; N       0.51; O   _1 -0.91; O   _2 -0.91; H   _1 -0.45; 
@             H   _2 -0.45; H   _1 -0.44; H   _2 -0.44; H      -0.43; 

 Residual norm when dim(red L) =  12
 NEO root     CSF        orbital          total
    1     0.05960076     0.06954405     0.09158944 converged

 (NEONEX) NEO auxiliary root no.  1 is converged.

 (SIRNEO) iteration (  8, 24)
 maximum number of microiterations reached

   --- OUTPUT FROM SIRCNO     Keyword = FD+NO 


 Occupations of CAS natural orbitals:

 Symmetry  1 ( irrep A1  in C2v )

   1.999999850

 Symmetry  2 ( irrep B1  in C2v )

   1.999983022

 Symmetry  3 ( irrep B2  in C2v )

   1.595149424   0.408418032

 Symmetry  4 ( irrep A2  in C2v )

   1.996227696   1.292024237   0.708197738


 --- MACRO ITERATION  9 ---
 --------------------------

 2-el. integral transformation level 3: Total CPU and WALL times (sec)     104.031     104.083

 Fock matrix screening setting for this macro iteration: 10^( -9)

 Total MCSCF energy       :          -434.071077149569589  (MACRO    9)

 - Nuclear repulsion      :           412.647786818204793
 - Inactive energy        :          -813.991602675204376
 - Active energy          :           -32.727261292570020

 Norm of total gradient   :             0.022779686510
 -    of CI gradient      :             0.015408246151
 -    of orbital gradient :             0.016777963764
      Virial theorem: -V/T =      2.000771
@    MULPOP   C       1.88; C   _1  0.16; C   _2  0.16; C   _1  0.48; C   _2  0.48; C       0.33; N       0.53; O   _1 -0.89; O   _2 -0.89; H   _1 -0.45; 
@             H   _2 -0.45; H   _1 -0.44; H   _2 -0.44; H      -0.44; 

 Residual norm when dim(red L) =  12
 NEO root     CSF        orbital          total
    1     0.03102618     0.09143975     0.09656009 converged

 (NEONEX) NEO auxiliary root no.  1 is converged.

 (SIRNEO) iteration (  9, 24)
 maximum number of microiterations reached

   --- OUTPUT FROM SIRCNO     Keyword = FD+NO 


 Occupations of CAS natural orbitals:

 Symmetry  1 ( irrep A1  in C2v )

   1.999999885

[...]
      ----------------------------------------------------------------
         1    1.93644D+01  3.08D+00  1.91D+01  7.46D+02    1.16800D-01

 ** RSPCTL MICROITERATION NUMBER   11

 *** INFO, negative eigenvalues in reduced matrix. Symmetry  1,  triplet       F Dimension of reduced matrix =    24

 GP * SOLUTION vector at frequency     0.11680 a.u.
 after   12 linear transformations is      1.40423783D+04
 INERTIA (POS,ZER,NEG) of reduced matrix is   23    0    1
 Determinant of reduced matrix is -8.09 * 10 **-22.0

       No.  Residual tot.,    conf., and orb.    Bnorm      Frequency 
      ----------------------------------------------------------------
         1    2.36137D+01  1.02D+01  2.13D+01  9.73D+02    1.16800D-01

 ** RSPCTL MICROITERATION NUMBER   12

 *** INFO, negative eigenvalues in reduced matrix. Symmetry  1,  triplet       F Dimension of reduced matrix =    26

 GP * SOLUTION vector at frequency     0.11680 a.u.
 after   13 linear transformations is      1.51315264D+04
 INERTIA (POS,ZER,NEG) of reduced matrix is   25    0    1
 Determinant of reduced matrix is -1.58 * 10 **-24.0

       No.  Residual tot.,    conf., and orb.    Bnorm      Frequency 
      ----------------------------------------------------------------
         1    5.60006D+01  4.01D+01  3.91D+01  1.58D+03    1.16800D-01

 ** RSPCTL MICROITERATION NUMBER   13

 *** INFO, negative eigenvalues in reduced matrix. Symmetry  1,  triplet       F Dimension of reduced matrix =    28

 GP * SOLUTION vector at frequency     0.11680 a.u.
 after   14 linear transformations is      1.22403232D+04
 INERTIA (POS,ZER,NEG) of reduced matrix is   26    0    2
 Determinant of reduced matrix is  6.51 * 10 **-25.0

       No.  Residual tot.,    conf., and orb.    Bnorm      Frequency 
      ----------------------------------------------------------------
         1    4.60417D+01  4.48D+00  4.58D+01  7.40D+02    1.16800D-01

 ** RSPCTL MICROITERATION NUMBER   14

 *** INFO, negative eigenvalues in reduced matrix. Symmetry  1,  triplet       F Dimension of reduced matrix =    30

 GP * SOLUTION vector at frequency     0.11680 a.u.
 after   15 linear transformations is      1.29816833D+04
 INERTIA (POS,ZER,NEG) of reduced matrix is   28    0    2
 Determinant of reduced matrix is  3.94 * 10 **-27.0

       No.  Residual tot.,    conf., and orb.    Bnorm      Frequency 
      ----------------------------------------------------------------
         1    1.24512D+01  4.59D+00  1.16D+01  5.45D+02    1.16800D-01

 ** RSPCTL MICROITERATION NUMBER   15

 *** INFO, negative eigenvalues in reduced matrix. Symmetry  1,  triplet       F Dimension of reduced matrix =    32

 GP * SOLUTION vector at frequency     0.11680 a.u.
 after   16 linear transformations is      1.30525341D+04
 INERTIA (POS,ZER,NEG) of reduced matrix is   30    0    2
 Determinant of reduced matrix is  1.54 * 10 **-29.0

       No.  Residual tot.,    conf., and orb.    Bnorm      Frequency 
      ----------------------------------------------------------------
         1    7.66359D+00  5.11D+00  5.71D+00  5.55D+02    1.16800D-01

 ** RSPCTL MICROITERATION NUMBER   16

 *** INFO, negative eigenvalues in reduced matrix. Symmetry  1,  triplet       F Dimension of reduced matrix =    34

 GP * SOLUTION vector at frequency     0.11680 a.u.
 after   17 linear transformations is      1.30668613D+04
 INERTIA (POS,ZER,NEG) of reduced matrix is   32    0    2
 Determinant of reduced matrix is  8.22 * 10 **-32.0

       No.  Residual tot.,    conf., and orb.    Bnorm      Frequency 
      ----------------------------------------------------------------
         1    5.65109D+00  5.29D+00  2.00D+00  5.60D+02    1.16800D-01

 ** RSPCTL MICROITERATION NUMBER   17

 *** INFO, negative eigenvalues in reduced matrix. Symmetry  1,  triplet       F Dimension of reduced matrix =    36

 GP * SOLUTION vector at frequency     0.11680 a.u.
 after   18 linear transformations is      1.31387646D+04
 INERTIA (POS,ZER,NEG) of reduced matrix is   34    0    2
 Determinant of reduced matrix is  9.67 * 10 **-33.0

       No.  Residual tot.,    conf., and orb.    Bnorm      Frequency 
      ----------------------------------------------------------------
         1    4.99379D+00  2.33D+00  4.42D+00  5.79D+02    1.16800D-01

 ** RSPCTL MICROITERATION NUMBER   18

 *** INFO, negative eigenvalues in reduced matrix. Symmetry  1,  triplet       F Dimension of reduced matrix =    38

 GP * SOLUTION vector at frequency     0.11680 a.u.
 after   19 linear transformations is      1.31483991D+04
 INERTIA (POS,ZER,NEG) of reduced matrix is   36    0    2
 Determinant of reduced matrix is  6.36 * 10 **-36.0

       No.  Residual tot.,    conf., and orb.    Bnorm      Frequency 
      ----------------------------------------------------------------
         1    3.09976D+00  2.65D+00  1.61D+00  5.81D+02    1.16800D-01

 ** RSPCTL MICROITERATION NUMBER   19

 *** INFO, negative eigenvalues in reduced matrix. Symmetry  1,  triplet       F Dimension of reduced matrix =    40

 GP * SOLUTION vector at frequency     0.11680 a.u.
 after   20 linear transformations is      1.31571057D+04
 INERTIA (POS,ZER,NEG) of reduced matrix is   38    0    2
 Determinant of reduced matrix is  1.24 * 10 **-36.0

       No.  Residual tot.,    conf., and orb.    Bnorm      Frequency 
      ----------------------------------------------------------------
         1    1.94462D+00  6.24D-01  1.84D+00  5.84D+02    1.16800D-01

 ** RSPCTL MICROITERATION NUMBER   20

 *** INFO, negative eigenvalues in reduced matrix. Symmetry  1,  triplet       F Dimension of reduced matrix =    42

 GP * SOLUTION vector at frequency     0.11680 a.u.
 after   21 linear transformations is      1.31602782D+04
 INERTIA (POS,ZER,NEG) of reduced matrix is   40    0    2
 Determinant of reduced matrix is  2.41 * 10 **-40.0

       No.  Residual tot.,    conf., and orb.    Bnorm      Frequency 
      ----------------------------------------------------------------
         1    1.34804D+00  1.03D+00  8.66D-01  5.90D+02    1.16800D-01

 ** RSPCTL MICROITERATION NUMBER   21

 *** INFO, negative eigenvalues in reduced matrix. Symmetry  1,  triplet       F Dimension of reduced matrix =    44

 GP * SOLUTION vector at frequency     0.11680 a.u.
 after   22 linear transformations is      1.31609046D+04
 INERTIA (POS,ZER,NEG) of reduced matrix is   42    0    2
 Determinant of reduced matrix is  1.72 * 10 **-40.0

       No.  Residual tot.,    conf., and orb.    Bnorm      Frequency 
      ----------------------------------------------------------------
         1    1.16467D+00  7.09D-01  9.24D-01  5.91D+02    1.16800D-01

 ** RSPCTL MICROITERATION NUMBER   22

 *** INFO, negative eigenvalues in reduced matrix. Symmetry  1,  triplet       F Dimension of reduced matrix =    46

 GP * SOLUTION vector at frequency     0.11680 a.u.
 after   23 linear transformations is      1.31614062D+04
 INERTIA (POS,ZER,NEG) of reduced matrix is   44    0    2
 Determinant of reduced matrix is  7.92 * 10 **-44.0

       No.  Residual tot.,    conf., and orb.    Bnorm      Frequency 
      ----------------------------------------------------------------
         1    9.77874D-01  9.34D-01  2.90D-01  5.95D+02    1.16800D-01

 ** RSPCTL MICROITERATION NUMBER   23

 *** INFO, negative eigenvalues in reduced matrix. Symmetry  1,  triplet       F Dimension of reduced matrix =    48

 GP * SOLUTION vector at frequency     0.11680 a.u.
 after   24 linear transformations is      1.31623423D+04
 INERTIA (POS,ZER,NEG) of reduced matrix is   46    0    2
 Determinant of reduced matrix is  5.28 * 10 **-44.0

       No.  Residual tot.,    conf., and orb.    Bnorm      Frequency 
      ----------------------------------------------------------------
         1    6.69879D-01  6.22D-02  6.67D-01  6.00D+02    1.16800D-01

 ** RSPCTL MICROITERATION NUMBER   24

 *** INFO, negative eigenvalues in reduced matrix. Symmetry  1,  triplet       F Dimension of reduced matrix =    50

 GP * SOLUTION vector at frequency     0.11680 a.u.
 after   25 linear transformations is      1.31627557D+04
 INERTIA (POS,ZER,NEG) of reduced matrix is   48    0    2
 Determinant of reduced matrix is  2.43 * 10 **-47.0

       No.  Residual tot.,    conf., and orb.    Bnorm      Frequency 
      ----------------------------------------------------------------
         1    3.43302D-01  1.22D-01  3.21D-01  6.08D+02    1.16800D-01

 *** THE REQUESTED    1 SOLUTION VECTORS CONVERGED

 Convergence of RSP solution vectors, threshold = 1.00D-03
 ---------------------------------------------------------------
 (dimension of paired reduced space:   50)
 RSP solution vector no.    1; norm of residual   5.65D-04

 *** RSPCTL MICROITERATIONS CONVERGED
    YDIPLEN     YDIPLEN      freq1     freq2                Norm
 ---------------------------------------------------------------
                          0.058400  0.058400        608.00113998
  Time used in CRVEC2     is       2 hours 54 minutes 36 seconds


 ----- CALCULATING CONTRIBUTIONS TO SECOND HYPERPOLARIZABILITY -----


   Contribution                Term         Accumulated
 ------------------------------------------------------
 Na T[4] Nb Nc Nd166045280.72381407  166045280.72381407
 Na T[3] Nx Nyz -136362975.63238028   29682305.09143378
 Na X[3] Ny Nz     5545077.29988118   35227382.39131496
 Nx A[3] Ny Nz     1848359.09996039   37075741.49127535
 Na X[2] Nyz      -6806068.65570235   30269672.83557300
 Nx A[2] Nyz      -7415586.70278154   22854086.13279145

@ Cubic response function value in a.u. for
@ A operator, symmetry, frequency:   ZDIPLEN    1 -0.058400
@ B operator, symmetry, frequency:   ZDIPLEN    1  0.058400
@ C operator, symmetry, frequency:   ZDIPLEN    1 -0.058400
@ D operator, symmetry, frequency:   ZDIPLEN    1  0.058400

@ << A; B, C, D >>  =    22854086.13279145



   Contribution                Term         Accumulated
 ------------------------------------------------------
 Na T[4] Nb Nc Nd   559559.20130748     559559.20130748
 Na T[3] Nx Nyz   -1177340.96431960    -617781.76301212
 Na X[3] Ny Nz      721628.48917104     103846.72615892
 Nx A[3] Ny Nz      694893.90012164     798740.62628056
 Na X[2] Nyz       -397832.75692583     400907.86935473
 Nx A[2] Nyz       -575303.50881324    -174395.63945851

@ Cubic response function value in a.u. for
@ A operator, symmetry, frequency:   XDIPLEN    2 -0.058400
@ B operator, symmetry, frequency:   XDIPLEN    2  0.058400
@ C operator, symmetry, frequency:   ZDIPLEN    1 -0.058400
@ D operator, symmetry, frequency:   ZDIPLEN    1  0.058400

@ << A; B, C, D >>  =     -174395.63945851



   Contribution                Term         Accumulated
 ------------------------------------------------------
 Na T[4] Nb Nc Nd   -50812.02823773     -50812.02823773
 Na T[3] Nx Nyz      -7747.44588217     -58559.47411990
 Na X[3] Ny Nz      124987.75096653      66428.27684662
 Nx A[3] Ny Nz       77903.64281528     144331.91966190
 Na X[2] Nyz         17400.74475783     161732.66441972
 Nx A[2] Nyz       -251673.42420425     -89940.75978453

@ Cubic response function value in a.u. for
@ A operator, symmetry, frequency:   YDIPLEN    3 -0.058400
@ B operator, symmetry, frequency:   YDIPLEN    3  0.058400
@ C operator, symmetry, frequency:   ZDIPLEN    1 -0.058400
@ D operator, symmetry, frequency:   ZDIPLEN    1  0.058400

@ << A; B, C, D >>  =      -89940.75978453



   Contribution                Term         Accumulated
 ------------------------------------------------------
 Na T[4] Nb Nc Nd   262576.30082387     262576.30082387
 Na T[3] Nx Nyz   -1016390.82688376    -753814.52605989
 Na X[3] Ny Nz      120952.81402993    -632861.71202996
 Nx A[3] Ny Nz       -8034.12124340    -640895.83327336
 Na X[2] Nyz        -62008.43238830    -702904.26566167
 Nx A[2] Nyz        109480.84928250    -593423.41637916

@ Cubic response function value in a.u. for
@ A operator, symmetry, frequency:   XDIPLEN    2 -0.058400
@ B operator, symmetry, frequency:   ZDIPLEN    1  0.058400
@ C operator, symmetry, frequency:   XDIPLEN    2 -0.058400
@ D operator, symmetry, frequency:   ZDIPLEN    1  0.058400

@ << A; B, C, D >>  =     -593423.41637916



   Contribution                Term         Accumulated
 ------------------------------------------------------
 Na T[4] Nb Nc Nd   -24896.57888359     -24896.57888359
 Na T[3] Nx Nyz     -29852.27240594     -54748.85128953
 Na X[3] Ny Nz       56562.30891241       1813.45762288
 Nx A[3] Ny Nz       12016.62302718      13830.08065006
 Na X[2] Nyz        -66196.05633012     -52365.97568006
 Nx A[2] Nyz       -159424.33271374    -211790.30839380

@ Cubic response function value in a.u. for
@ A operator, symmetry, frequency:   YDIPLEN    3 -0.058400
@ B operator, symmetry, frequency:   ZDIPLEN    1  0.058400
@ C operator, symmetry, frequency:   YDIPLEN    3 -0.058400
@ D operator, symmetry, frequency:   ZDIPLEN    1  0.058400

@ << A; B, C, D >>  =     -211790.30839380



   Contribution                Term         Accumulated
 ------------------------------------------------------
 Na T[4] Nb Nc Nd   318036.94219438     318036.94219438
 Na T[3] Nx Nyz   -1200881.06167170    -882844.11947731
 Na X[3] Ny Nz     -126642.36256762   -1009486.48204494
 Nx A[3] Ny Nz        6137.60506417   -1003348.87698076
 Na X[2] Nyz        327562.65982975    -675786.21715101
 Nx A[2] Nyz         79335.21624740    -596451.00090361

@ Cubic response function value in a.u. for
@ A operator, symmetry, frequency:   ZDIPLEN    1 -0.058400
@ B operator, symmetry, frequency:   XDIPLEN    2  0.058400
@ C operator, symmetry, frequency:   ZDIPLEN    1 -0.058400
@ D operator, symmetry, frequency:   XDIPLEN    2  0.058400

@ << A; B, C, D >>  =     -596451.00090361



   Contribution                Term         Accumulated
 ------------------------------------------------------
 Na T[4] Nb Nc Nd    92553.80733126      92553.80733126
 Na T[3] Nx Nyz    -197445.13815927    -104891.33082801
 Na X[3] Ny Nz      118531.73694716      13640.40611915
 Nx A[3] Ny Nz       39510.57898239      53150.98510154
 Na X[2] Nyz        -19516.50208311      33634.48301842
 Nx A[2] Nyz        -55987.50538618     -22353.02236776

@ Cubic response function value in a.u. for
@ A operator, symmetry, frequency:   XDIPLEN    2 -0.058400
@ B operator, symmetry, frequency:   XDIPLEN    2  0.058400
@ C operator, symmetry, frequency:   XDIPLEN    2 -0.058400
@ D operator, symmetry, frequency:   XDIPLEN    2  0.058400

@ << A; B, C, D >>  =      -22353.02236776



   Contribution                Term         Accumulated
 ------------------------------------------------------
 Na T[4] Nb Nc Nd    -4250.00132831      -4250.00132831
 Na T[3] Nx Nyz       -388.36411070      -4638.36543901
 Na X[3] Ny Nz        7917.91409875       3279.54865974
 Nx A[3] Ny Nz        3094.57236024       6374.12101998
 Na X[2] Nyz         -9112.87955866      -2738.75853867
 Nx A[2] Nyz        -15784.16384440     -18522.92238307

@ Cubic response function value in a.u. for
@ A operator, symmetry, frequency:   YDIPLEN    3 -0.058400
@ B operator, symmetry, frequency:   YDIPLEN    3  0.058400
@ C operator, symmetry, frequency:   XDIPLEN    2 -0.058400
@ D operator, symmetry, frequency:   XDIPLEN    2  0.058400

@ << A; B, C, D >>  =      -18522.92238307



   Contribution                Term         Accumulated
 ------------------------------------------------------
 Na T[4] Nb Nc Nd    -3667.94820846      -3667.94820846
 Na T[3] Nx Nyz       -320.32189534      -3988.27010381
 Na X[3] Ny Nz        6911.11813393       2922.84803013
 Nx A[3] Ny Nz        2456.70874047       5379.55677060
 Na X[2] Nyz        -12163.67571932      -6784.11894872
 Nx A[2] Nyz        -16623.79953004     -23407.91847876

@ Cubic response function value in a.u. for
@ A operator, symmetry, frequency:   YDIPLEN    3 -0.058400
@ B operator, symmetry, frequency:   XDIPLEN    2  0.058400
@ C operator, symmetry, frequency:   YDIPLEN    3 -0.058400
@ D operator, symmetry, frequency:   XDIPLEN    2  0.058400

@ << A; B, C, D >>  =      -23407.91847876



   Contribution                Term         Accumulated
 ------------------------------------------------------
 Na T[4] Nb Nc Nd     5797.24835074       5797.24835074
 Na T[3] Nx Nyz    -162627.80744261    -156830.55909187
 Na X[3] Ny Nz      -14543.01557280    -171373.57466466
 Nx A[3] Ny Nz        1989.80808603    -169383.76657863
 Na X[2] Nyz        -49666.72282253    -219050.48940117
 Nx A[2] Nyz          7337.13037122    -211713.35902995

@ Cubic response function value in a.u. for
@ A operator, symmetry, frequency:   ZDIPLEN    1 -0.058400
@ B operator, symmetry, frequency:   YDIPLEN    3  0.058400
@ C operator, symmetry, frequency:   ZDIPLEN    1 -0.058400
@ D operator, symmetry, frequency:   YDIPLEN    3  0.058400

@ << A; B, C, D >>  =     -211713.35902995



   Contribution                Term         Accumulated
 ------------------------------------------------------
 Na T[4] Nb Nc Nd    -1137.96378977      -1137.96378977
 Na T[3] Nx Nyz      -1114.05497060      -2252.01876037
 Na X[3] Ny Nz        1908.86017128       -343.15858909
 Nx A[3] Ny Nz         483.28402793        140.12543884
 Na X[2] Nyz        -12317.09680430     -12176.97136546
 Nx A[2] Nyz        -11223.15726299     -23400.12862845

@ Cubic response function value in a.u. for
@ A operator, symmetry, frequency:   XDIPLEN    2 -0.058400
@ B operator, symmetry, frequency:   YDIPLEN    3  0.058400
@ C operator, symmetry, frequency:   XDIPLEN    2 -0.058400
@ D operator, symmetry, frequency:   YDIPLEN    3  0.058400

@ << A; B, C, D >>  =      -23400.12862845



   Contribution                Term         Accumulated
 ------------------------------------------------------
 Na T[4] Nb Nc Nd     -758.28816899       -758.28816899
 Na T[3] Nx Nyz       3541.93103341       2783.64286442
 Na X[3] Ny Nz        2340.86049742       5124.50336183
 Nx A[3] Ny Nz         780.28683247       5904.79019431
 Na X[2] Nyz        -15320.49086651      -9415.70067220
 Nx A[2] Nyz        -15388.42565687     -24804.12632907

@ Cubic response function value in a.u. for
@ A operator, symmetry, frequency:   YDIPLEN    3 -0.058400
@ B operator, symmetry, frequency:   YDIPLEN    3  0.058400
@ C operator, symmetry, frequency:   YDIPLEN    3 -0.058400
@ D operator, symmetry, frequency:   YDIPLEN    3  0.058400

@ << A; B, C, D >>  =      -24804.12632907



  Summary of gamma values for a set of frequencies
 -------------------------------------------------

@ B-freq:  0.058400
@ C-freq: -0.058400
@ D-freq:  0.058400

@ gamma(X;X,X,X)      22353.0224
@ gamma(X;X,Y,Y)      18522.9224
@ gamma(X;Y,Y,X)      18522.9224
@ gamma(X;Y,X,Y)      23400.1286
@ gamma(X;X,Z,Z)     174395.6395
@ gamma(X;Z,Z,X)     174395.6395
@ gamma(X;Z,X,Z)     593423.4164
@ gamma(Y;Y,X,X)      18522.9224
@ gamma(Y;X,X,Y)      18522.9224
@ gamma(Y;X,Y,X)      23407.9185
@ gamma(Y;Y,Y,Y)      24804.1263
@ gamma(Y;Y,Z,Z)      89940.7598
@ gamma(Y;Z,Z,Y)      89940.7598
@ gamma(Y;Z,Y,Z)     211790.3084
@ gamma(Z;Z,X,X)     174395.6395
@ gamma(Z;X,X,Z)     174395.6395
@ gamma(Z;X,Z,X)     596451.0009
@ gamma(Z;Z,Y,Y)      89940.7598
@ gamma(Z;Y,Y,Z)      89940.7598
@ gamma(Z;Y,Z,Y)     211713.3590
@ gamma(Z;Z,Z,Z)  -22854086.1328

@ Averaged gamma parallel to the applied field is  -4375277.568931

  Total CPU  time used in RESPONSE:   7 hours 54 minutes 17 seconds
  Total wall time used in RESPONSE:   7 hours 54 minutes 36 seconds


                   .-------------------------------------------.
                   | End of Dynamic Property Section (RESPONS) |
                   `-------------------------------------------'

  Total CPU  time used in DALTON:  12 hours 25 minutes 14 seconds
  Total wall time used in DALTON:  12 hours 25 minutes 45 seconds

 
     Date and time (Linux)  : Sun Feb  9 00:11:14 2020
     Host name              : Lab2-333-NPs                            
