

     ************************************************************************
     *************** Dalton - An Electronic Structure Program ***************
     ************************************************************************

    This is output from DALTON release Dalton2018.1 (2019)
         ( Web site: http://daltonprogram.org )

   ----------------------------------------------------------------------------

    NOTE:
     
    Dalton is an experimental code for the evaluation of molecular
    properties using (MC)SCF, DFT, CI, and CC wave functions.
    The authors accept no responsibility for the performance of
    the code or for the correctness of the results.
     
    The code (in whole or part) is provided under a licence and
    is not to be reproduced for further distribution without
    the written permission of the authors or their representatives.
     
    See the home page "http://daltonprogram.org" for further information.
     
    If results obtained with this code are published,
    the appropriate citations would be both of:
     
       K. Aidas, C. Angeli, K. L. Bak, V. Bakken, R. Bast,
       L. Boman, O. Christiansen, R. Cimiraglia, S. Coriani,
       P. Dahle, E. K. Dalskov, U. Ekstroem,
       T. Enevoldsen, J. J. Eriksen, P. Ettenhuber, B. Fernandez,
       L. Ferrighi, H. Fliegl, L. Frediani, K. Hald, A. Halkier,
       C. Haettig, H. Heiberg, T. Helgaker, A. C. Hennum,
       H. Hettema, E. Hjertenaes, S. Hoest, I.-M. Hoeyvik,
       M. F. Iozzi, B. Jansik, H. J. Aa. Jensen, D. Jonsson,
       P. Joergensen, J. Kauczor, S. Kirpekar,
       T. Kjaergaard, W. Klopper, S. Knecht, R. Kobayashi, H. Koch,
       J. Kongsted, A. Krapp, K. Kristensen, A. Ligabue,
       O. B. Lutnaes, J. I. Melo, K. V. Mikkelsen, R. H. Myhre,
       C. Neiss, C. B. Nielsen, P. Norman, J. Olsen,
       J. M. H. Olsen, A. Osted, M. J. Packer, F. Pawlowski,
       T. B. Pedersen, P. F. Provasi, S. Reine, Z. Rinkevicius,
       T. A. Ruden, K. Ruud, V. Rybkin, P. Salek, C. C. M. Samson,
       A. Sanchez de Meras, T. Saue, S. P. A. Sauer,
       B. Schimmelpfennig, K. Sneskov, A. H. Steindal,
       K. O. Sylvester-Hvid, P. R. Taylor, A. M. Teale,
       E. I. Tellgren, D. P. Tew, A. J. Thorvaldsen, L. Thoegersen,
       O. Vahtras, M. A. Watson, D. J. D. Wilson, M. Ziolkowski
       and H. Agren,
       "The Dalton quantum chemistry program system",
       WIREs Comput. Mol. Sci. 2014, 4:269–284 (doi: 10.1002/wcms.1172)
     
    and
     
       Dalton, a molecular electronic structure program,
       Release Dalton2018.1 (2019), see http://daltonprogram.org
   ----------------------------------------------------------------------------

    Authors in alphabetical order (major contribution(s) in parenthesis):

  Kestutis Aidas,           Vilnius University,           Lithuania   (QM/MM)
  Celestino Angeli,         University of Ferrara,        Italy       (NEVPT2)
  Keld L. Bak,              UNI-C,                        Denmark     (AOSOPPA, non-adiabatic coupling, magnetic properties)
  Vebjoern Bakken,          University of Oslo,           Norway      (DALTON; geometry optimizer, symmetry detection)
  Radovan Bast,             UiT The Arctic U. of Norway,  Norway      (DALTON installation and execution frameworks)
  Pablo Baudin,             University of Valencia,       Spain       (Cholesky excitation energies)
  Linus Boman,              NTNU,                         Norway      (Cholesky decomposition and subsystems)
  Ove Christiansen,         Aarhus University,            Denmark     (CC module)
  Renzo Cimiraglia,         University of Ferrara,        Italy       (NEVPT2)
  Sonia Coriani,            Technical Univ. of Denmark,   Denmark     (CC module, MCD in RESPONS)
  Janusz Cukras,            University of Trieste,        Italy       (MChD in RESPONS)
  Paal Dahle,               University of Oslo,           Norway      (Parallelization)
  Erik K. Dalskov,          UNI-C,                        Denmark     (SOPPA)
  Thomas Enevoldsen,        Univ. of Southern Denmark,    Denmark     (SOPPA)
  Janus J. Eriksen,         Aarhus University,            Denmark     (Polarizable embedding model, TDA)
  Rasmus Faber,             University of Copenhagen,     Denmark     (Vib.avg. NMR with SOPPA, parallel AO-SOPPA)
  Tobias Fahleson,          KTH Stockholm,                Sweden      (Damped cubic response)
  Berta Fernandez,          U. of Santiago de Compostela, Spain       (doublet spin, ESR in RESPONS)
  Lara Ferrighi,            Aarhus University,            Denmark     (PCM Cubic response)
  Heike Fliegl,             University of Oslo,           Norway      (CCSD(R12))
  Luca Frediani,            UiT The Arctic U. of Norway,  Norway      (PCM)
  Bin Gao,                  UiT The Arctic U. of Norway,  Norway      (Gen1Int library)
  Christof Haettig,         Ruhr-University Bochum,       Germany     (CC module)
  Kasper Hald,              Aarhus University,            Denmark     (CC module)
  Asger Halkier,            Aarhus University,            Denmark     (CC module)
  Frederik Beyer Hansen,    University of Copenhagen,     Denmark     (Parallel AO-SOPPA)
  Erik D. Hedegaard,        Univ. of Southern Denmark,    Denmark     (Polarizable embedding model, QM/MM)
  Hanne Heiberg,            University of Oslo,           Norway      (geometry analysis, selected one-electron integrals)
  Trygve Helgaker,          University of Oslo,           Norway      (DALTON; ABACUS, ERI, DFT modules, London, and much more)
  Alf Christian Hennum,     University of Oslo,           Norway      (Parity violation)
  Hinne Hettema,            University of Auckland,       New Zealand (quadratic response in RESPONS; SIRIUS supersymmetry)
  Eirik Hjertenaes,         NTNU,                         Norway      (Cholesky decomposition)
  Pi A. B. Haase,           University of Copenhagen,     Denmark     (Triplet AO-SOPPA)
  Maria Francesca Iozzi,    University of Oslo,           Norway      (RPA)
  Christoph Jacob           TU Braunschweig               Germany     (Frozen density embedding model)
  Brano Jansik              Technical Univ. of Ostrava    Czech Rep.  (DFT cubic response)
  Hans Joergen Aa. Jensen,  Univ. of Southern Denmark,    Denmark     (DALTON; SIRIUS, RESPONS, ABACUS modules, London, and much more)
  Dan Jonsson,              UiT The Arctic U. of Norway,  Norway      (cubic response in RESPONS module)
  Poul Joergensen,          Aarhus University,            Denmark     (RESPONS, ABACUS, and CC modules)
  Maciej Kaminski,          University of Warsaw,         Poland      (CPPh in RESPONS)
  Joanna Kauczor,           Linkoeping University,        Sweden      (Complex polarization propagator (CPP) module)
  Sheela Kirpekar,          Univ. of Southern Denmark,    Denmark     (Mass-velocity & Darwin integrals)
  Wim Klopper,              KIT Karlsruhe,                Germany     (R12 code in CC, SIRIUS, and ABACUS modules)
  Stefan Knecht,            ETH Zurich,                   Switzerland (Parallel CI and MCSCF)
  Rika Kobayashi,           Australian National Univ.,    Australia   (DIIS in CC, London in MCSCF)
  Henrik Koch,              NTNU,                         Norway      (CC module, Cholesky decomposition)
  Jacob Kongsted,           Univ. of Southern Denmark,    Denmark     (Polarizable embedding model, QM/MM)
  Andrea Ligabue,           University of Modena,         Italy       (CTOCD, AOSOPPA)
  Nanna H. List             Univ. of Southern Denmark,    Denmark     (Polarizable embedding model)
  Ola B. Lutnaes,           University of Oslo,           Norway      (DFT Hessian)
  Juan I. Melo,             University of Buenos Aires,   Argentina   (LRESC, Relativistic Effects on NMR Shieldings)
  Kurt V. Mikkelsen,        University of Copenhagen,     Denmark     (MC-SCRF and QM/MM)
  Rolf H. Myhre,            NTNU,                         Norway      (Subsystems and CC3)
  Christian Neiss,          Univ. Erlangen-Nuernberg,     Germany     (CCSD(R12))
  Christian B. Nielsen,     University of Copenhagen,     Denmark     (QM/MM)
  Patrick Norman,           KTH Stockholm,                Sweden      (Cubic response and complex frequency response in RESPONS)
  Jeppe Olsen,              Aarhus University,            Denmark     (SIRIUS CI/density modules)
  Jogvan Magnus H. Olsen,   Univ. of Southern Denmark,    Denmark     (Polarizable embedding model, QM/MM)
  Anders Osted,             Copenhagen University,        Denmark     (QM/MM)
  Martin J. Packer,         University of Sheffield,      UK          (SOPPA)
  Filip Pawlowski,          Kazimierz Wielki University,  Poland      (CC3)
  Morten N. Pedersen,       Univ. of Southern Denmark,    Denmark     (Polarizable embedding model)
  Thomas B. Pedersen,       University of Oslo,           Norway      (Cholesky decomposition)
  Patricio F. Provasi,      University of Northeastern,   Argentina   (Analysis of coupling constants in localized orbitals)
  Zilvinas Rinkevicius,     KTH Stockholm,                Sweden      (open-shell DFT, ESR)
  Elias Rudberg,            KTH Stockholm,                Sweden      (DFT grid and basis info)
  Torgeir A. Ruden,         University of Oslo,           Norway      (Numerical derivatives in ABACUS)
  Kenneth Ruud,             UiT The Arctic U. of Norway,  Norway      (DALTON; ABACUS magnetic properties and much more)
  Pawel Salek,              KTH Stockholm,                Sweden      (DALTON; DFT code)
  Claire C. M. Samson       University of Karlsruhe       Germany     (Boys localization, r12 integrals in ERI)
  Alfredo Sanchez de Meras, University of Valencia,       Spain       (CC module, Cholesky decomposition)
  Trond Saue,               Paul Sabatier University,     France      (direct Fock matrix construction)
  Stephan P. A. Sauer,      University of Copenhagen,     Denmark     (SOPPA(CCSD), SOPPA prop., AOSOPPA, vibrational g-factors)
  Andre S. P. Gomes,        CNRS/Universite de Lille,     France      (Frozen density embedding model)
  Bernd Schimmelpfennig,    Forschungszentrum Karlsruhe,  Germany     (AMFI module)
  Kristian Sneskov,         Aarhus University,            Denmark     (Polarizable embedding model, QM/MM)
  Arnfinn H. Steindal,      UiT The Arctic U. of Norway,  Norway      (parallel QM/MM, Polarizable embedding model)
  Casper Steinmann,         Univ. of Southern Denmark,    Denmark     (QFIT, Polarizable embedding model)
  K. O. Sylvester-Hvid,     University of Copenhagen,     Denmark     (MC-SCRF)
  Peter R. Taylor,          VLSCI/Univ. of Melbourne,     Australia   (Symmetry handling ABACUS, integral transformation)
  Andrew M. Teale,          University of Nottingham,     England     (DFT-AC, DFT-D)
  David P. Tew,             University of Bristol,        England     (CCSD(R12))
  Olav Vahtras,             KTH Stockholm,                Sweden      (triplet response, spin-orbit, ESR, TDDFT, open-shell DFT)
  Lucas Visscher,           Vrije Universiteit Amsterdam, Netherlands (Frozen density embedding model)
  David J. Wilson,          La Trobe University,          Australia   (DFT Hessian and DFT magnetizabilities)
  Hans Agren,               KTH Stockholm,                Sweden      (SIRIUS module, RESPONS, MC-SCRF solvation model)
 --------------------------------------------------------------------------------

     Date and time (Linux)  : Wed Feb 12 08:08:21 2020
     Host name              : Lab2-333-NPs                            

 * Work memory size             :  1024000000 =  7.629 gigabytes.

 * Directories for basis set searches:
   1) /home/lab333/dalton/build_2018_atlas
   2) /home/lab333/dalton/build_2018_atlas/basis


Compilation information
-----------------------

 Who compiled             | lab333
 Host                     | Lab2-333-NPs
 System                   | Linux-4.4.0-43-Microsoft
 CMake generator          | Unix Makefiles
 Processor                | x86_64
 64-bit integers          | OFF
 MPI                      | OFF
 Fortran compiler         | /usr/bin/gfortran
 Fortran compiler version | GNU Fortran (Ubuntu 7.3.0-27ubuntu1~18.04) 7.3.0
 C compiler               | /usr/bin/gcc
 C compiler version       | gcc (Ubuntu 7.3.0-27ubuntu1~18.04) 7.3.0
 C++ compiler             | /usr/bin/g++
 C++ compiler version     | g++ (Ubuntu 7.3.0-27ubuntu1~18.04) 7.3.0
 BLAS                     | /usr/lib/x86_64-linux-gnu/libf77blas.so;/usr/lib/x
                          | 86_64-linux-gnu/libcblas.so;/usr/lib/x86_64-linux-
                          | gnu/libatlas.so
 LAPACK                   | /usr/lib/x86_64-linux-gnu/libatlas.so;/usr/lib/x86
                          | _64-linux-gnu/atlas/liblapack.so
 Static linking           | OFF
 Last Git revision        | da625bf48c74028e805616daee31bc5d76b3a20d
 Git branch               | (HEAD detached at Dalton2018.1)
 Configuration time       | 2019-01-18 10:20:51.437510


   Content of the .dal input file
 ----------------------------------

**DALTON INPUT
.RUN RESPONSE
.DIRECT
**WAVE FUNCTIONS
.HF
.MP2
.MCSCF
*CONFIGURATION INPUT
.SPIN MULTIPLICITY
1
.SYMMETRY
1
.INACTIVE ORBITALS
15 10 2 0
.CAS SPACE
1 1 2 3
.ELECTRONS
10
*ORBITAL INPUT
.MOSTART
.HUCKEL
*OPTIMIZATION
.DETERMINANTS
.STATE
1
*CI VECTOR
.PLUS COMBINATIONS
**RESPONSE
*CUBIC
.DIPLEN
.BFREQ
1
0.0584
.CFREQ
1
-0.0584
.DFREQ
1
0.0584
**END OF DALTON INPUT


   Content of the .mol file
 ----------------------------

BASIS
aug-cc-pCVDZ
 nitrobenzene
 Generated by the Dalton Input File Plugin for Avogadro
Atomtypes=4 Angstrom Generators=2 X Y
Charge=6.0 Atoms=4
C        0.0000000000            0.0000000000           -0.0265759623
C       -1.2190534920            0.0000000000           -0.6979856948
C       -1.2105095870            0.0000000000           -2.0897394457
C        0.0000000000            0.0000000000           -2.7841484631
Charge=7.0 Atoms=1
N        0.0000000000            0.0000000000            1.4549291696
Charge=8.0 Atoms=1
O       1.11521540314967            0.0            1.9612289310690185
Charge=1.0 Atoms=3
H       -2.1410602955            0.0000000000           -0.1327964319
H       -2.1492827751            0.0000000000           -2.6311811056
H        0.0000000000            0.0000000000           -3.8683953478


       *******************************************************************
       *********** Output from DALTON general input processing ***********
       *******************************************************************

 --------------------------------------------------------------------------------
   Overall default print level:    0
   Print level for DALTON.STAT:    1

    AO-direct calculation (in sections where implemented)
    HERMIT 1- and 2-electron integral sections will be executed
    "Old" integral transformation used (limited to max 255 basis functions)
    Wave function sections will be executed (SIRIUS module)
    Dynamic molecular response properties section will be executed (RESPONSE module)
 --------------------------------------------------------------------------------


   ****************************************************************************
   *************** Output of molecule and basis set information ***************
   ****************************************************************************


    The two title cards from your ".mol" input:
    ------------------------------------------------------------------------
 1:  nitrobenzene                                                           
 2:  Generated by the Dalton Input File Plugin for Avogadro                 
    ------------------------------------------------------------------------

  Coordinates are entered in Angstrom and converted to atomic units.
          - Conversion factor : 1 bohr = 0.52917721 A

  Atomic type no.    1
  --------------------
  Nuclear charge:   6.00000
  Number of symmetry independent centers:    4
  Number of basis sets to read;    2
  Basis set file used for this atomic type with Z =   6 :
     "/home/lab333/dalton/build_2018_atlas/basis/aug-cc-pCVDZ"

  Atomic type no.    2
  --------------------
  Nuclear charge:   7.00000
  Number of symmetry independent centers:    1
  Number of basis sets to read;    2
  Basis set file used for this atomic type with Z =   7 :
     "/home/lab333/dalton/build_2018_atlas/basis/aug-cc-pCVDZ"

  Atomic type no.    3
  --------------------
  Nuclear charge:   8.00000
  Number of symmetry independent centers:    1
  Number of basis sets to read;    2
  Basis set file used for this atomic type with Z =   8 :
     "/home/lab333/dalton/build_2018_atlas/basis/aug-cc-pCVDZ"

  Atomic type no.    4
  --------------------
  Nuclear charge:   1.00000
  Number of symmetry independent centers:    3
  Number of basis sets to read;    2
  Basis set file used for this atomic type with Z =   1 :
     "/home/lab333/dalton/build_2018_atlas/basis/aug-cc-pCVDZ"


                         SYMGRP: Point group information
                         -------------------------------

@    Point group: C2v

@  * The irrep name for each symmetry:    1: A1     2: B1     3: B2     4: A2 

   * The point group was generated by:

      Reflection in the yz-plane
      Reflection in the xz-plane

   * Group multiplication table

        |  E   C2z  Oxz  Oyz
   -----+--------------------
     E  |  E   C2z  Oxz  Oyz
    C2z | C2z   E   Oyz  Oxz
    Oxz | Oxz  Oyz   E   C2z
    Oyz | Oyz  Oxz  C2z   E 

   * Character table

        |  E   C2z  Oxz  Oyz
   -----+--------------------
    A1  |   1    1    1    1
    B1  |   1   -1    1   -1
    B2  |   1   -1   -1    1
    A2  |   1    1   -1   -1

   * Direct product table

        | A1   B1   B2   A2 
   -----+--------------------
    A1  | A1   B1   B2   A2 
    B1  | B1   A1   A2   B2 
    B2  | B2   A2   A1   B1 
    A2  | A2   B2   B1   A1 


                                 Isotopic Masses
                                 ---------------

                           C          12.000000
                           C   _1     12.000000
                           C   _2     12.000000
                           C   _1     12.000000
                           C   _2     12.000000
                           C          12.000000
                           N          14.003074
                           O   _1     15.994915
                           O   _2     15.994915
                           H   _1      1.007825
                           H   _2      1.007825
                           H   _1      1.007825
                           H   _2      1.007825
                           H           1.007825

                       Total mass:   123.032029 amu
                       Natural abundance:  92.716 %

 Center-of-mass coordinates (a.u.):    0.000000    0.000000   -0.414573


  Atoms and basis sets
  --------------------

  Number of atom types :    4
  Total number of atoms:   14

  Basis set used is "aug-cc-pCVDZ" from the basis set library.

  label    atoms   charge   prim   cont     basis
  ----------------------------------------------------------------------
  C           6    6.0000    39    27      [11s6p2d|5s4p2d]                                   
  N           1    7.0000    39    27      [11s6p2d|5s4p2d]                                   
  O           2    8.0000    39    27      [11s6p2d|5s4p2d]                                   
  H           5    1.0000    11     9      [5s2p|3s2p]                                        
  ----------------------------------------------------------------------
  total:     14   64.0000   406   288
  ----------------------------------------------------------------------
  Spherical harmonic basis used.

  Threshold for neglecting AO integrals:  1.00D-12


  Symmetry Coordinates
  --------------------

  Number of coordinates in each symmetry:    14   14    9    5


   Interatomic separations (in Angstrom):
   --------------------------------------

            C           C   _1      C   _2      C   _1      C   _2      C     
            ------      ------      ------      ------      ------      ------
 C     :    0.000000
 C   _1:    1.391719    0.000000
 C   _2:    1.391719    2.438107    0.000000
 C   _1:    2.392065    1.391780    2.799956    0.000000
 C   _2:    2.392065    2.799956    1.391780    2.421019    0.000000
 C     :    2.757573    2.416230    2.416230    1.395542    1.395542    0.000000
 N     :    1.481505    2.474093    2.474093    3.745665    3.745665    4.239078
 O   _1:    2.279270    3.538394    2.661241    4.671118    4.052089    4.874660
 O   _2:    2.279270    2.661241    3.538394    4.052089    4.671118    4.874660
 H   _1:    2.143694    1.081451    3.407316    2.166922    3.881063    3.407904
 H   _2:    2.143694    3.407316    1.081451    3.881063    2.166922    3.407904
 H   _1:    3.376890    2.145360    3.883675    1.083722    3.403140    2.154719
 H   _2:    3.376890    3.883675    2.145360    3.403140    1.083722    2.154719
 H     :    3.841819    3.396703    3.396703    2.151500    2.151500    1.084247

            N           O   _1      O   _2      H   _1      H   _2      H   _1
            ------      ------      ------      ------      ------      ------
 N     :    0.000000
 O   _1:    1.224763    0.000000
 O   _2:    1.224763    2.230431    0.000000
 H   _1:    2.665523    3.871469    2.331802    0.000000
 H   _2:    2.665523    2.331802    3.871469    4.282121    0.000000
 H   _1:    4.616894    5.634463    4.707390    2.498398    4.964773    0.000000
 H   _2:    4.616894    4.707390    5.634463    4.964773    2.498398    4.298566
 H     :    5.323325    5.935337    5.935337    4.305675    4.305675    2.479943

            H   _2      H     
            ------      ------
 H   _2:    0.000000
 H     :    2.479943    0.000000


  Max    interatomic separation is    5.9353 Angstrom (   11.2162 Bohr)
  between atoms   14 and    8, "H     " and "O   _1".

  Min HX interatomic separation is    1.0815 Angstrom (    2.0436 Bohr)

  Min YX interatomic separation is    1.2248 Angstrom (    2.3145 Bohr)


  Bond distances (Angstrom):
  --------------------------

                  atom 1     atom 2       distance
                  ------     ------       --------
  bond distance:  C   _1     C            1.391719
  bond distance:  C   _2     C            1.391719
  bond distance:  C   _1     C   _1       1.391780
  bond distance:  C   _2     C   _2       1.391780
  bond distance:  C          C   _1       1.395542
  bond distance:  C          C   _2       1.395542
  bond distance:  N          C            1.481505
  bond distance:  O   _1     N            1.224763
  bond distance:  O   _2     N            1.224763
  bond distance:  H   _1     C   _1       1.081451
  bond distance:  H   _2     C   _2       1.081451
  bond distance:  H   _1     C   _1       1.083722
  bond distance:  H   _2     C   _2       1.083722
  bond distance:  H          C            1.084247


  Bond angles (degrees):
  ----------------------

                  atom 1     atom 2     atom 3         angle
                  ------     ------     ------         -----
  bond angle:     C   _1     C          C   _2       122.311
  bond angle:     C   _1     C          N            118.844
  bond angle:     C   _2     C          N            118.844
  bond angle:     C          C   _1     C   _1       118.493
  bond angle:     C          C   _1     H   _1       119.647
  bond angle:     C   _1     C   _1     H   _1       121.860
  bond angle:     C          C   _2     C   _2       118.493
  bond angle:     C          C   _2     H   _2       119.647
  bond angle:     C   _2     C   _2     H   _2       121.860
  bond angle:     C   _1     C   _1     C            120.192
  bond angle:     C   _1     C   _1     H   _1       119.623
  bond angle:     C          C   _1     H   _1       120.185
  bond angle:     C   _2     C   _2     C            120.192
  bond angle:     C   _2     C   _2     H   _2       119.623
  bond angle:     C          C   _2     H   _2       120.185
  bond angle:     C   _1     C          C   _2       120.319
  bond angle:     C   _1     C          H            119.841
  bond angle:     C   _2     C          H            119.841
  bond angle:     C          N          O   _1       114.418
  bond angle:     C          N          O   _2       114.418
  bond angle:     O   _1     N          O   _2       131.165




 Principal moments of inertia (u*A**2) and principal axes
 --------------------------------------------------------

   IA     129.171268          0.000000    0.000000    1.000000
   IB     385.365520          1.000000    0.000000    0.000000
   IC     514.536788          0.000000    1.000000    0.000000


 Rotational constants
 --------------------

@    The molecule is planar.

               A                   B                   C

           3912.4723           1311.4277            982.2019 MHz
            0.130506            0.043745            0.032763 cm-1


@  Nuclear repulsion energy :  413.205305182989 Hartree


  Symmetry Orbitals
  -----------------

  Number of orbitals in each symmetry:         115   91   48   34


  Symmetry  A1 ( 1)

    1     C        1s         1
    2     C        1s         2
    3     C        1s         3
    4     C        1s         4
    5     C        1s         5
    6     C        2pz        8
    7     C        2pz       11
    8     C        2pz       14
    9     C        2pz       17
   10     C        3d0       20
   11     C        3d2+      22
   12     C        3d0       25
   13     C        3d2+      27
   14     C        1s        28 +   29
   15     C        1s        30 +   31
   16     C        1s        32 +   33
   17     C        1s        34 +   35
   18     C        1s        36 +   37
   19     C        2px       38 -   39
   20     C        2pz       42 +   43
   21     C        2px       44 -   45
   22     C        2pz       48 +   49
   23     C        2px       50 -   51
   24     C        2pz       54 +   55
   25     C        2px       56 -   57
   26     C        2pz       60 +   61
   27     C        3d0       66 +   67
   28     C        3d1+      68 -   69
   29     C        3d2+      70 +   71
   30     C        3d0       76 +   77
   31     C        3d1+      78 -   79
   32     C        3d2+      80 +   81
   33     C        1s        82 +   83
   34     C        1s        84 +   85
   35     C        1s        86 +   87
   36     C        1s        88 +   89
   37     C        1s        90 +   91
   38     C        2px       92 -   93
   39     C        2pz       96 +   97
   40     C        2px       98 -   99
   41     C        2pz      102 +  103
   42     C        2px      104 -  105
   43     C        2pz      108 +  109
   44     C        2px      110 -  111
   45     C        2pz      114 +  115
   46     C        3d0      120 +  121
   47     C        3d1+     122 -  123
   48     C        3d2+     124 +  125
   49     C        3d0      130 +  131
   50     C        3d1+     132 -  133
   51     C        3d2+     134 +  135
   52     C        1s       136
   53     C        1s       137
   54     C        1s       138
   55     C        1s       139
   56     C        1s       140
   57     C        2pz      143
   58     C        2pz      146
   59     C        2pz      149
   60     C        2pz      152
   61     C        3d0      155
   62     C        3d2+     157
   63     C        3d0      160
   64     C        3d2+     162
   65     N        1s       163
   66     N        1s       164
   67     N        1s       165
   68     N        1s       166
   69     N        1s       167
   70     N        2pz      170
   71     N        2pz      173
   72     N        2pz      176
   73     N        2pz      179
   74     N        3d0      182
   75     N        3d2+     184
   76     N        3d0      187
   77     N        3d2+     189
   78     O        1s       190 +  191
   79     O        1s       192 +  193
   80     O        1s       194 +  195
   81     O        1s       196 +  197
   82     O        1s       198 +  199
   83     O        2px      200 -  201
   84     O        2pz      204 +  205
   85     O        2px      206 -  207
   86     O        2pz      210 +  211
   87     O        2px      212 -  213
   88     O        2pz      216 +  217
   89     O        2px      218 -  219
   90     O        2pz      222 +  223
   91     O        3d0      228 +  229
   92     O        3d1+     230 -  231
   93     O        3d2+     232 +  233
   94     O        3d0      238 +  239
   95     O        3d1+     240 -  241
   96     O        3d2+     242 +  243
   97     H        1s       244 +  245
   98     H        1s       246 +  247
   99     H        1s       248 +  249
  100     H        2px      250 -  251
  101     H        2pz      254 +  255
  102     H        2px      256 -  257
  103     H        2pz      260 +  261
  104     H        1s       262 +  263
  105     H        1s       264 +  265
  106     H        1s       266 +  267
  107     H        2px      268 -  269
  108     H        2pz      272 +  273
  109     H        2px      274 -  275
  110     H        2pz      278 +  279
  111     H        1s       280
  112     H        1s       281
  113     H        1s       282
  114     H        2pz      285
  115     H        2pz      288


  Symmetry  B1 ( 2)

  116     C        2px        6
  117     C        2px        9
  118     C        2px       12
  119     C        2px       15
  120     C        3d1+      21
  121     C        3d1+      26
  122     C        1s        28 -   29
  123     C        1s        30 -   31
  124     C        1s        32 -   33
  125     C        1s        34 -   35
  126     C        1s        36 -   37
  127     C        2px       38 +   39
  128     C        2pz       42 -   43
  129     C        2px       44 +   45
  130     C        2pz       48 -   49
  131     C        2px       50 +   51
  132     C        2pz       54 -   55
  133     C        2px       56 +   57
  134     C        2pz       60 -   61
  135     C        3d0       66 -   67
  136     C        3d1+      68 +   69
  137     C        3d2+      70 -   71
  138     C        3d0       76 -   77
  139     C        3d1+      78 +   79
  140     C        3d2+      80 -   81
  141     C        1s        82 -   83
  142     C        1s        84 -   85
  143     C        1s        86 -   87
  144     C        1s        88 -   89
  145     C        1s        90 -   91
  146     C        2px       92 +   93
  147     C        2pz       96 -   97
  148     C        2px       98 +   99
  149     C        2pz      102 -  103
  150     C        2px      104 +  105
  151     C        2pz      108 -  109
  152     C        2px      110 +  111
  153     C        2pz      114 -  115
  154     C        3d0      120 -  121
  155     C        3d1+     122 +  123
  156     C        3d2+     124 -  125
  157     C        3d0      130 -  131
  158     C        3d1+     132 +  133
  159     C        3d2+     134 -  135
  160     C        2px      141
  161     C        2px      144
  162     C        2px      147
  163     C        2px      150
  164     C        3d1+     156
  165     C        3d1+     161
  166     N        2px      168
  167     N        2px      171
  168     N        2px      174
  169     N        2px      177
  170     N        3d1+     183
  171     N        3d1+     188
  172     O        1s       190 -  191
  173     O        1s       192 -  193
  174     O        1s       194 -  195
  175     O        1s       196 -  197
  176     O        1s       198 -  199
  177     O        2px      200 +  201
  178     O        2pz      204 -  205
  179     O        2px      206 +  207
  180     O        2pz      210 -  211
  181     O        2px      212 +  213
  182     O        2pz      216 -  217
  183     O        2px      218 +  219
  184     O        2pz      222 -  223
  185     O        3d0      228 -  229
  186     O        3d1+     230 +  231
  187     O        3d2+     232 -  233
  188     O        3d0      238 -  239
  189     O        3d1+     240 +  241
  190     O        3d2+     242 -  243
  191     H        1s       244 -  245
  192     H        1s       246 -  247
  193     H        1s       248 -  249
  194     H        2px      250 +  251
  195     H        2pz      254 -  255
  196     H        2px      256 +  257
  197     H        2pz      260 -  261
  198     H        1s       262 -  263
  199     H        1s       264 -  265
  200     H        1s       266 -  267
  201     H        2px      268 +  269
  202     H        2pz      272 -  273
  203     H        2px      274 +  275
  204     H        2pz      278 -  279
  205     H        2px      283
  206     H        2px      286


  Symmetry  B2 ( 3)

  207     C        2py        7
  208     C        2py       10
  209     C        2py       13
  210     C        2py       16
  211     C        3d1-      19
  212     C        3d1-      24
  213     C        2py       40 +   41
  214     C        2py       46 +   47
  215     C        2py       52 +   53
  216     C        2py       58 +   59
  217     C        3d2-      62 -   63
  218     C        3d1-      64 +   65
  219     C        3d2-      72 -   73
  220     C        3d1-      74 +   75
  221     C        2py       94 +   95
  222     C        2py      100 +  101
  223     C        2py      106 +  107
  224     C        2py      112 +  113
  225     C        3d2-     116 -  117
  226     C        3d1-     118 +  119
  227     C        3d2-     126 -  127
  228     C        3d1-     128 +  129
  229     C        2py      142
  230     C        2py      145
  231     C        2py      148
  232     C        2py      151
  233     C        3d1-     154
  234     C        3d1-     159
  235     N        2py      169
  236     N        2py      172
  237     N        2py      175
  238     N        2py      178
  239     N        3d1-     181
  240     N        3d1-     186
  241     O        2py      202 +  203
  242     O        2py      208 +  209
  243     O        2py      214 +  215
  244     O        2py      220 +  221
  245     O        3d2-     224 -  225
  246     O        3d1-     226 +  227
  247     O        3d2-     234 -  235
  248     O        3d1-     236 +  237
  249     H        2py      252 +  253
  250     H        2py      258 +  259
  251     H        2py      270 +  271
  252     H        2py      276 +  277
  253     H        2py      284
  254     H        2py      287


  Symmetry  A2 ( 4)

  255     C        3d2-      18
  256     C        3d2-      23
  257     C        2py       40 -   41
  258     C        2py       46 -   47
  259     C        2py       52 -   53
  260     C        2py       58 -   59
  261     C        3d2-      62 +   63
  262     C        3d1-      64 -   65
  263     C        3d2-      72 +   73
  264     C        3d1-      74 -   75
  265     C        2py       94 -   95
  266     C        2py      100 -  101
  267     C        2py      106 -  107
  268     C        2py      112 -  113
  269     C        3d2-     116 +  117
  270     C        3d1-     118 -  119
  271     C        3d2-     126 +  127
  272     C        3d1-     128 -  129
  273     C        3d2-     153
  274     C        3d2-     158
  275     N        3d2-     180
  276     N        3d2-     185
  277     O        2py      202 -  203
  278     O        2py      208 -  209
  279     O        2py      214 -  215
  280     O        2py      220 -  221
  281     O        3d2-     224 +  225
  282     O        3d1-     226 -  227
  283     O        3d2-     234 +  235
  284     O        3d1-     236 -  237
  285     H        2py      252 -  253
  286     H        2py      258 -  259
  287     H        2py      270 -  271
  288     H        2py      276 -  277

  Symmetries of electric field:  B1 (2)  B2 (3)  A1 (1)

  Symmetries of magnetic field:  B2 (3)  B1 (2)  A2 (4)


                     .---------------------------------------.
                     | Starting in Integral Section (HERMIT) |
                     `---------------------------------------'



 ***************************************************************************************
 ****************** Output from **INTEGRALS input processing (HERMIT) ******************
 ***************************************************************************************


 - Using defaults, no **INTEGRALS input found

 Default print level:        1

 Calculation of one-electron Hamiltonian integrals.

 Center of mass  (bohr):      0.000000000000      0.000000000000     -0.414573430150
 Operator center (bohr):      0.000000000000      0.000000000000      0.000000000000
 Gauge origin    (bohr):      0.000000000000      0.000000000000      0.000000000000
 Dipole origin   (bohr):      0.000000000000      0.000000000000      0.000000000000


     ************************************************************************
     ************************** Output from HERINT **************************
     ************************************************************************



                      Nuclear contribution to dipole moments
                      --------------------------------------

                 au               Debye          C m (/(10**-30)

      z    -34.29707706       -87.17446898      -290.78272870


  Time used in GABGEN     is       0.11 seconds
  Total CPU  time used in HERMIT:   0.44 seconds
  Total wall time used in HERMIT:   0.44 seconds


                        .----------------------------------.
                        | End of Integral Section (HERMIT) |
                        `----------------------------------'



                   .--------------------------------------------.
                   | Starting in Wave Function Section (SIRIUS) |
                   `--------------------------------------------'


 *** Output from Huckel module :

     Using EWMO model:          F
     Using EHT  model:          T
     Number of Huckel orbitals each symmetry:   24   17    6    3

 Huckel EHT eigenvalues for symmetry :  1
          -20.694800     -15.706039     -11.415032     -11.394628     -11.376762
          -11.362602      -1.749945      -1.552614      -1.189778      -0.938629
           -0.815674      -0.789391      -0.640286      -0.586895      -0.488048
           -0.427776      -0.334136      -0.248087      -0.226140      -0.213756
           -0.205807      -0.178738      -0.166231      -0.160474

 Huckel EHT eigenvalues for symmetry :  2
          -20.701814     -11.396481     -11.377861      -1.413325      -1.202241
           -0.878946      -0.645246      -0.576776      -0.526191      -0.477558
           -0.414565      -0.266679      -0.213084      -0.202815      -0.176227
           -0.165361      -0.163261

 Huckel EHT eigenvalues for symmetry :  3
           -0.800868      -0.670156      -0.464209      -0.384788      -0.281828
           -0.236546

 Huckel EHT eigenvalues for symmetry :  4
           -0.595287      -0.460020      -0.288799

 **********************************************************************
 *SIRIUS* a direct, restricted step, second order MCSCF program       *
 **********************************************************************

 
     Date and time (Linux)  : Wed Feb 12 08:08:21 2020
     Host name              : Lab2-333-NPs                            

 Title lines from ".mol" input file:
      nitrobenzene                                                           
      Generated by the Dalton Input File Plugin for Avogadro                 

 Print level on unit LUPRI =   2 is   0
 Print level on unit LUW4  =   2 is   5

@    MC-SCF optimization.

@    Multi-configurational response calculation.
@              Type: complete active space calculation (CAS).

@    This is a combination run starting with
@              a restricted, closed shell Hartree-Fock calculation
@              an MP2 calculation

 Fock matrices are calculated directly without use of integrals on disk.

 Initial molecular orbitals are obtained according to
 ".MOSTART EHT   " input option

     Wave function specification
     ============================
@    Wave function type        --- MC-SCF ---
@    Number of closed shell electrons          54
@    Number of electrons in active shells      10
@    Total charge of the molecule               0

@    Spin multiplicity and 2 M_S                1         0
@    Total number of symmetries                 4 (point group: C2v)
@    Reference state symmetry                   1 (irrep name : A1 )

     Orbital specifications
     ======================
@    Abelian symmetry species          All |    1    2    3    4
@                                          |  A1   B1   B2   A2 
                                       --- |  ---  ---  ---  ---
@    Inactive orbitals                  27 |   15   10    2    0
@    Active orbitals                     7 |    1    1    2    3
@    Secondary orbitals                254 |   99   80   44   31
@    Total number of orbitals          288 |  115   91   48   34
@    Number of basis functions         288 |  115   91   48   34

      ** Automatic occupation of RHF orbitals **

      -- Initial occupation of symmetries is determined from extended Huckel guess.           
      -- Initial occupation of symmetries is :
@    Occupied SCF orbitals              32 |   16   11    3    2

     Optimization information
     ========================
@    Number of determinants                 115
@    Number of orbital rotations           2762
     ------------------------------------------
@    Total number of variables             2877

     Maximum number of macro iterations      25
     Maximum number of micro iterations     600
     Threshold for MCSCF gradient      1.00D-05
     Number of initial trial vectors          1
     Number of initial CI iterations          3
     Number of simultaneous trial vectors     1

@    This calculation converges to the lowest state for the specified symmetry and spin species.

     Maximum number of NEO/NR iterations  24

    INFORMATION: Switched to "new" integral transformation (from 1988 ;-) )
    because more than 255 basis functions.


 ***********************************************
 ***** DIIS acceleration of SCF iterations *****
 ***********************************************

 C1-DIIS algorithm; max error vectors =    8

 Automatic occupation of symmetries with  64 electrons.

 Iter     Total energy    Error norm  Delta(E)    SCF occupation
 -----------------------------------------------------------------------------
   1  Screening settings (-IFTHRS, JTDIIS, DIFDEN, times)   -8    1    T  2.83D+01  2.83D+01
@  1  -432.271748237       6.45D+00  -4.32D+02    16  11   3   2
      Virial theorem: -V/T =      1.998652
@    MULPOP   C       0.33; C   _1  0.27; C   _2  0.27; C   _1  0.23; C   _2  0.23; C       0.35; N       1.31; O   _1 -1.02; O   _2 -1.02; H   _1 -0.20; 
@             H   _2 -0.20; H   _1 -0.18; H   _2 -0.18; H      -0.19; 
   1  Level shift: doubly occupied orbital energies shifted by -2.00D-01
 -----------------------------------------------------------------------------
   2  Screening settings (-IFTHRS, JTDIIS, DIFDEN, times)   -8    2    T  2.83D+01  2.84D+01
@  2  -433.848410747       2.89D+00  -1.58D+00    16  11   3   2
      Virial theorem: -V/T =      2.001420
@    MULPOP   C       0.81; C   _1  0.41; C   _2  0.41; C   _1  0.35; C   _2  0.35; C       0.36; N       0.37; O   _1 -0.52; O   _2 -0.52; H   _1 -0.41; 
@             H   _2 -0.41; H   _1 -0.39; H   _2 -0.39; H      -0.41; 
   2  Level shift: doubly occupied orbital energies shifted by -1.00D-01
 -----------------------------------------------------------------------------
   3  Screening settings (-IFTHRS, JTDIIS, DIFDEN, times)   -8    3    T  2.82D+01  2.82D+01
@  3  -434.203532209       7.09D-01  -3.55D-01    16  11   3   2
      Virial theorem: -V/T =      2.000871
@    MULPOP   C       1.54; C   _1  0.27; C   _2  0.27; C   _1  0.46; C   _2  0.46; C       0.28; N       0.71; O   _1 -0.88; O   _2 -0.88; H   _1 -0.46; 
@             H   _2 -0.46; H   _1 -0.44; H   _2 -0.44; H      -0.44; 
   3  Level shift: doubly occupied orbital energies shifted by -2.50D-02
 -----------------------------------------------------------------------------
   4  Screening settings (-IFTHRS, JTDIIS, DIFDEN, times)   -8    4    T  2.81D+01  2.81D+01
@  4  -434.228661278       1.83D-01  -2.51D-02    16  11   3   2
      Virial theorem: -V/T =      2.002616
@    MULPOP   C       1.63; C   _1  0.23; C   _2  0.23; C   _1  0.52; C   _2  0.52; C       0.27; N       0.56; O   _1 -0.84; O   _2 -0.84; H   _1 -0.46; 
@             H   _2 -0.46; H   _1 -0.46; H   _2 -0.46; H      -0.46; 
   4  Level shift: doubly occupied orbital energies shifted by -1.25D-02
 -----------------------------------------------------------------------------
   5  Screening settings (-IFTHRS, JTDIIS, DIFDEN, times)  -10    5    F  2.84D+01  2.84D+01
@  5  -434.231264669       5.48D-02  -2.60D-03    16  11   3   2
      Virial theorem: -V/T =      2.002042
@    MULPOP   C       1.66; C   _1  0.21; C   _2  0.21; C   _1  0.51; C   _2  0.51; C       0.25; N       0.56; O   _1 -0.85; O   _2 -0.85; H   _1 -0.45; 
@             H   _2 -0.45; H   _1 -0.44; H   _2 -0.44; H      -0.45; 
 -----------------------------------------------------------------------------
   6  Screening settings (-IFTHRS, JTDIIS, DIFDEN, times)  -10    6    T  2.82D+01  2.82D+01
@  6  -434.231603276       1.54D-02  -3.39D-04    16  11   3   2
      Virial theorem: -V/T =      2.001966
@    MULPOP   C       1.68; C   _1  0.20; C   _2  0.20; C   _1  0.52; C   _2  0.52; C       0.25; N       0.54; O   _1 -0.85; O   _2 -0.85; H   _1 -0.44; 
@             H   _2 -0.44; H   _1 -0.44; H   _2 -0.44; H      -0.44; 
 -----------------------------------------------------------------------------
   7  Screening settings (-IFTHRS, JTDIIS, DIFDEN, times)  -13    7    F  2.89D+01  2.89D+01
@  7  -434.231636961       6.36D-03  -3.37D-05    16  11   3   2
      Virial theorem: -V/T =      2.002001
@    MULPOP   C       1.68; C   _1  0.20; C   _2  0.20; C   _1  0.52; C   _2  0.52; C       0.25; N       0.54; O   _1 -0.85; O   _2 -0.85; H   _1 -0.44; 
@             H   _2 -0.44; H   _1 -0.44; H   _2 -0.44; H      -0.44; 
 -----------------------------------------------------------------------------
   8  Screening settings (-IFTHRS, JTDIIS, DIFDEN, times)  -13    8    T  2.84D+01  2.84D+01
@  8  -434.231642246       2.15D-03  -5.29D-06    16  11   3   2
      Virial theorem: -V/T =      2.001989
@    MULPOP   C       1.69; C   _1  0.20; C   _2  0.20; C   _1  0.52; C   _2  0.52; C       0.25; N       0.54; O   _1 -0.85; O   _2 -0.85; H   _1 -0.44; 
@             H   _2 -0.44; H   _1 -0.44; H   _2 -0.44; H      -0.44; 
 -----------------------------------------------------------------------------
   9  Screening settings (-IFTHRS, JTDIIS, DIFDEN, times)  -13    9    T  2.86D+01  2.86D+01
@  9  -434.231642812       6.54D-04  -5.66D-07    16  11   3   2
      Virial theorem: -V/T =      2.001986
@    MULPOP   C       1.69; C   _1  0.20; C   _2  0.20; C   _1  0.52; C   _2  0.52; C       0.25; N       0.54; O   _1 -0.84; O   _2 -0.84; H   _1 -0.44; 
@             H   _2 -0.44; H   _1 -0.44; H   _2 -0.44; H      -0.44; 
 -----------------------------------------------------------------------------
  10  Screening settings (-IFTHRS, JTDIIS, DIFDEN, times)  -13   10    T  2.84D+01  2.84D+01
@ 10  -434.231642863       2.05D-04  -5.07D-08    16  11   3   2
      Virial theorem: -V/T =      2.001987
@    MULPOP   C       1.69; C   _1  0.20; C   _2  0.20; C   _1  0.52; C   _2  0.52; C       0.25; N       0.54; O   _1 -0.84; O   _2 -0.84; H   _1 -0.44; 
@             H   _2 -0.44; H   _1 -0.44; H   _2 -0.44; H      -0.44; 
 -----------------------------------------------------------------------------
  11  Screening settings (-IFTHRS, JTDIIS, DIFDEN, times)  -13   11    T  2.82D+01  2.82D+01
@ 11  -434.231642870       7.51D-05  -6.89D-09    16  11   3   2
      Virial theorem: -V/T =      2.001987
@    MULPOP   C       1.69; C   _1  0.20; C   _2  0.20; C   _1  0.52; C   _2  0.52; C       0.25; N       0.54; O   _1 -0.84; O   _2 -0.84; H   _1 -0.44; 
@             H   _2 -0.44; H   _1 -0.44; H   _2 -0.44; H      -0.44; 
 -----------------------------------------------------------------------------
  12  Screening settings (-IFTHRS, JTDIIS, DIFDEN, times)  -13   12    T  2.82D+01  2.82D+01
@ 12  -434.231642871       2.98D-05  -1.02D-09    16  11   3   2
      Virial theorem: -V/T =      2.001987
@    MULPOP   C       1.69; C   _1  0.20; C   _2  0.20; C   _1  0.52; C   _2  0.52; C       0.25; N       0.54; O   _1 -0.84; O   _2 -0.84; H   _1 -0.44; 
@             H   _2 -0.44; H   _1 -0.44; H   _2 -0.44; H      -0.44; 
 -----------------------------------------------------------------------------
  13  Screening settings (-IFTHRS, JTDIIS, DIFDEN, times)  -13   13    T  2.83D+01  2.83D+01
@ 13  -434.231642871       1.66D-05  -1.43D-10    16  11   3   2
      Virial theorem: -V/T =      2.001987
@    MULPOP   C       1.69; C   _1  0.20; C   _2  0.20; C   _1  0.52; C   _2  0.52; C       0.25; N       0.54; O   _1 -0.84; O   _2 -0.84; H   _1 -0.44; 
@             H   _2 -0.44; H   _1 -0.44; H   _2 -0.44; H      -0.44; 
 -----------------------------------------------------------------------------
  14  Screening settings (-IFTHRS, JTDIIS, DIFDEN, times)  -13   14    T  2.82D+01  2.82D+01
@ 14  -434.231642871       5.46D-06  -5.08D-11    16  11   3   2
      Virial theorem: -V/T =      2.001987
@    MULPOP   C       1.69; C   _1  0.20; C   _2  0.20; C   _1  0.52; C   _2  0.52; C       0.25; N       0.54; O   _1 -0.84; O   _2 -0.84; H   _1 -0.44; 
@             H   _2 -0.44; H   _1 -0.44; H   _2 -0.44; H      -0.44; 
 -----------------------------------------------------------------------------
  15  Screening settings (-IFTHRS, JTDIIS, DIFDEN, times)  -13   15    T  2.81D+01  2.81D+01
@ 15  -434.231642871       2.51D-06  -2.36D-11    16  11   3   2
      Virial theorem: -V/T =      2.001987
@    MULPOP   C       1.69; C   _1  0.20; C   _2  0.20; C   _1  0.52; C   _2  0.52; C       0.25; N       0.54; O   _1 -0.84; O   _2 -0.84; H   _1 -0.44; 
@             H   _2 -0.44; H   _1 -0.44; H   _2 -0.44; H      -0.44; 
 -----------------------------------------------------------------------------
  16  Screening settings (-IFTHRS, JTDIIS, DIFDEN, times)  -13   16    T  2.82D+01  2.83D+01
@ 16  -434.231642871       1.20D-06  -5.23D-12    16  11   3   2
      Virial theorem: -V/T =      2.001987
@    MULPOP   C       1.69; C   _1  0.20; C   _2  0.20; C   _1  0.52; C   _2  0.52; C       0.25; N       0.54; O   _1 -0.84; O   _2 -0.84; H   _1 -0.44; 
@             H   _2 -0.44; H   _1 -0.44; H   _2 -0.44; H      -0.44; 
 -----------------------------------------------------------------------------
  17  Screening settings (-IFTHRS, JTDIIS, DIFDEN, times)  -13   17    T  2.79D+01  2.79D+01
@ 17  -434.231642871       5.11D-07   9.78D-12    16  11   3   2

@ *** DIIS converged in  17 iterations !
@     Converged SCF energy, gradient:   -434.231642871164    5.11D-07
    - total time used in SIRFCK :              0.00 seconds

 --- Writing SIRIFC interface file

 CPU and wall time for SCF :     481.562     481.699


 ----- Output from SIRIUS MP2 module -----

 Reference: H.J.Aa.Jensen, P.Jorgensen, H.Agren, and J.Olsen,
            J. Chem. Phys. 88, 3834 (1988); 89, 5354 (1988)

 Checking that the closed shell orbitals are canonical Hartree-Fock orbitals

    Number of electrons  :   64
    Closed shell orbitals:   16   11    3    2

 Generating Fock matrix

 Hartree-Fock electronic energy:        -847.436948054146
 Hartree-Fock total      energy:        -434.231642871157

 Hartree-Fock orbital energies, symmetry 1 ( A1 ),   16 occupied SCF orbitals

       -20.62143431   -15.86614932   -11.31438899   -11.28026323   -11.27849395
       -11.27125342    -1.61254639    -1.19808040    -1.08966726    -0.96064316
        -0.83492198    -0.78491892    -0.70679367    -0.64994861    -0.55324093
        -0.49074309     0.02761777     0.04447567     0.06233273     0.10503863
         0.13106449     0.13542537     0.15223256     0.15642515     0.17317752
         0.17931398     0.21684990     0.25900760     0.28616116     0.30304602
         0.30888524     0.33988477     0.35275257     0.35622518     0.36992434
         0.39468902     0.41236770     0.43889142     0.46209098     0.48699609
         0.50172885     0.56012435     0.57459573     0.58745377     0.63144823
         0.65268260     0.66127371     0.67984845     0.72110705     0.73219783
         0.74427139     0.83843172     0.87916832     0.92540459     0.96131255
         0.96635436     1.00996058     1.05126973     1.08237691     1.14050678
         1.28378914     1.36580137     1.37829226     1.44301774     1.49021035
         1.52076296     1.55459519     1.57266970     1.60327687     1.62292613
         1.67931391     1.72609338     1.74727515     1.76471149     1.86591404
         1.94263882     1.96073836     2.00524442     2.01901060     2.11880253
         2.13899885     2.23750933     2.32265157     2.35936027     2.42354883
         2.45226249     2.56303262     2.71084090     2.77852766     2.85054682
         2.88317109     2.98456037     3.04130317     3.16227014     3.27769088
         3.43344923     3.77330246     3.92175773     4.09453252     4.27808843
        19.80090929    20.34084336    20.45739021    20.62424989    23.35656828
        23.36676025    23.43036985    23.81779162    23.91594860    24.12614799
        27.10044148    31.23740167    35.81219788    39.69346278    39.93188680

 Hartree-Fock orbital energies, symmetry 2 ( B1 ),   11 occupied SCF orbitals

       -20.62148036   -11.28030233   -11.27136291    -1.41982564    -1.05268624
        -0.86484074    -0.73764866    -0.65704785    -0.62413255    -0.52954812
        -0.50696243     0.03671306     0.05993128     0.13075850     0.13424887
         0.15426657     0.17358109     0.18430061     0.21465740     0.26201171
         0.29003609     0.31482167     0.33359409     0.36422828     0.37166192
         0.39547656     0.42335074     0.43876151     0.48198996     0.56995517
         0.58269420     0.59576328     0.65144560     0.67549701     0.68308694
         0.70668523     0.75436019     0.76301084     0.83120305     0.84348766
         0.86828160     0.93877632     1.01409298     1.14102091     1.20789186
         1.25459303     1.30333628     1.41337799     1.43043028     1.48858542
         1.56550074     1.59492231     1.59638995     1.63958080     1.71431957
         1.76324928     1.77413016     1.79280696     1.89368764     1.93345027
         1.99536072     2.08976753     2.22883812     2.25466865     2.33515286
         2.35030493     2.39133731     2.54282583     2.57066214     2.77477803
         2.90072391     2.93049646     3.08140241     3.26909435     3.32631557
         3.41401784     3.75731693     3.85600642     4.23052067    20.31038450
        20.49009904    22.91748845    23.34769524    23.39957776    23.94146653
        24.12466213    24.31233700    31.45370199    35.53103155    39.63410818
        39.97801531

 Hartree-Fock orbital energies, symmetry 3 ( B2 ),    3 occupied SCF orbitals

        -0.72355762    -0.53432436    -0.37463708     0.03632467     0.10830472
         0.12592545     0.14041967     0.18494403     0.19374618     0.24249311
         0.32308299     0.34447176     0.37101143     0.44561627     0.53463015
         0.58975341     0.64537080     0.71392461     0.79061801     0.83624951
         0.87508170     0.92410237     0.92928375     0.98519285     1.14872750
         1.28826547     1.31420419     1.47195400     1.47389763     1.62001526
         1.67490175     1.71078469     1.84942389     1.89663436     1.96674660
         2.08495715     2.18207547     2.29643746     2.53512025     2.67934077
         3.67709475     3.76149773    22.54751191    22.69424775    22.83152063
        23.02988427    30.55099556    39.41533794

 Hartree-Fock orbital energies, symmetry 4 ( A2 ),    2 occupied SCF orbitals

        -0.46534121    -0.36679921     0.08823851     0.13253414     0.18689094
         0.29663310     0.41494614     0.49189342     0.55138393     0.66545764
         0.73823608     0.89747064     0.90510678     0.94780008     1.03148323
         1.09708685     1.21392956     1.23532065     1.32827756     1.49450874
         1.67574233     1.69168710     1.86401579     2.02217484     2.12080687
         2.21821125     2.35854716     2.46302134     2.60940726     3.66395414
         4.01385366    22.69559323    22.86261771    39.50223343

    E(LUMO) :     0.02761777   (in symmetry 1)
  - E(HOMO) :    -0.36679921   (in symmetry 4)
  --------------------------
    gap     :     0.39441698

---> (Re)generating AOTWOINT


     ************************************************************************
     ************************** Output from HERINT **************************
     ************************************************************************


 Threshold for neglecting two-electron integrals:  1.00D-12
 HERMIT - Number of two-electron integrals written:   203954237 ( 23.6% )
 HERMIT - Megabytes written:                           3113.394

  Time used in TWOINT     is      39.38 seconds

 2-el. integral transformation level 5: Total CPU and WALL times (sec)     410.891     412.708

 MP2 move   0.995313 electrons to unoccupied HF orbitals


@   Hartree-Fock total energy   :          -434.2316428712
@   + MP2 contribution          :            -1.7273511492
@   = MP2 second order energy   :          -435.9589940203

 Natural orbital occupation numbers, symmetry 1 (irrep A1 )
 Sum =    32.00848398; RHF =    32.00000000; Difference =     0.00848398

         1.99928987     1.99907550     1.99876144     1.99875654     1.99875182
         1.99874786     1.98684259     1.98410123     1.97940349     1.97231218
         1.96890775     1.96827060     1.96507703     1.96209809     1.95511368
         1.94571388     0.04446149     0.03583899     0.02557342     0.02383903
         0.01918049     0.01851008     0.01738348     0.01650393     0.01381608
         0.01266118     0.01151213     0.00983576     0.00854514     0.00790063
         0.00727751     0.00667991     0.00557574     0.00453916     0.00306790
         0.00294249     0.00267822     0.00259958     0.00220769     0.00202347
         0.00184653     0.00167342     0.00162386     0.00131691     0.00121564
         0.00116123     0.00106016     0.00096448     0.00071907     0.00065392
         0.00061339     0.00053202     0.00050083     0.00046948     0.00043839
         0.00041773     0.00039897     0.00038751     0.00037597     0.00034878
         0.00033996     0.00032240     0.00030962     0.00028719     0.00026701
         0.00026041     0.00022478     0.00021065     0.00020365     0.00019605
         0.00018658     0.00018600     0.00017627     0.00017034     0.00016701
         0.00016120     0.00015576     0.00014890     0.00014059     0.00013346
         0.00012600     0.00012245     0.00012213     0.00011065     0.00010518
         0.00009354     0.00007827     0.00007157     0.00005757     0.00005339
         0.00005063     0.00003747     0.00003453     0.00002870     0.00001948
         0.00001831     0.00001449     0.00001321     0.00001156     0.00000939
         0.00000885     0.00000852     0.00000700     0.00000307     0.00000286
         0.00000199     0.00000099     0.00000056     0.00000037     0.00000018
         0.00000016     0.00000001    -0.00000010    -0.00000053    -0.00007163

 Natural orbital occupation numbers, symmetry 2 (irrep B1 )
 Sum =    21.95287365; RHF =    22.00000000; Difference =    -0.04712635

         1.99928976     1.99875716     1.99875078     1.98429180     1.98001314
         1.97272665     1.96281261     1.96062543     1.95476930     1.95422131
         1.94582596     0.03721941     0.02542843     0.02381008     0.01893260
         0.01661604     0.01596781     0.01525005     0.01127010     0.01055635
         0.00913322     0.00772756     0.00584794     0.00540569     0.00513528
         0.00415374     0.00313444     0.00269814     0.00238400     0.00213117
         0.00170670     0.00162570     0.00151882     0.00132197     0.00118521
         0.00102222     0.00097068     0.00070074     0.00064284     0.00057149
         0.00049596     0.00044119     0.00042422     0.00037400     0.00035410
         0.00034065     0.00031275     0.00029455     0.00027091     0.00025761
         0.00023862     0.00021159     0.00019846     0.00018745     0.00018269
         0.00017829     0.00017084     0.00016945     0.00016030     0.00015350
         0.00014456     0.00013386     0.00012898     0.00012632     0.00011918
         0.00011284     0.00009467     0.00008867     0.00006742     0.00005739
         0.00004644     0.00003777     0.00003107     0.00002936     0.00002421
         0.00001522     0.00001422     0.00001150     0.00001053     0.00000883
         0.00000473     0.00000351     0.00000186     0.00000123     0.00000057
         0.00000027     0.00000014    -0.00000005    -0.00000018    -0.00000067
        -0.00001027

 Natural orbital occupation numbers, symmetry 3 (irrep B2 )
 Sum =     6.07729489; RHF =     6.00000000; Difference =     0.07729489

         1.95076967     1.94435886     1.90893579     0.10110778     0.06755540
         0.02964823     0.01054348     0.01034320     0.00874788     0.00787111
         0.00614077     0.00525003     0.00446009     0.00385646     0.00342876
         0.00308545     0.00154500     0.00145145     0.00099923     0.00089594
         0.00087049     0.00066447     0.00059427     0.00049250     0.00047390
         0.00041926     0.00033469     0.00029142     0.00024705     0.00022839
         0.00019621     0.00019585     0.00018990     0.00017549     0.00015463
         0.00012977     0.00012084     0.00011220     0.00010130     0.00008369
         0.00008112     0.00006244     0.00003615     0.00002000     0.00001054
         0.00000727     0.00000528     0.00000120

 Natural orbital occupation numbers, symmetry 4 (irrep A2 )
 Sum =     3.96134748; RHF =     4.00000000; Difference =    -0.03865252

         1.91633741     1.90853855     0.06672985     0.01449916     0.01043480
         0.00928979     0.00794322     0.00571817     0.00520808     0.00407481
         0.00357136     0.00152338     0.00117780     0.00093779     0.00078103
         0.00073003     0.00067712     0.00056610     0.00040890     0.00037159
         0.00033931     0.00030055     0.00021597     0.00019703     0.00016414
         0.00013403     0.00011661     0.00010286     0.00009370     0.00006954
         0.00005048     0.00002079     0.00001783     0.00000569

 Time used for MP2 natural orbitals :     443.734 CPU seconds,     445.542 wall seconds.

 CPU and wall time for MP2 :     443.734     445.542


        SIRIUS MCSCF optimization (SIROPT)
 ================================================


 Fock matrix screening setting for SIRCNO: IFTHRS =    9


 ----- Output from SIRIUS CI module (CICTL) -----




 2-el. integral transformation level 0: Total CPU and WALL times (sec)     100.344     100.405


 --- SIRCI.CIST1: plus combination of all degenerate
                 configurations is used as start vectors.


 (CIST1) 8 lowest diagonal elements:

 Element no. Config.no.    Active energy      Total energy

         1 :         67    -17.3377113239   -434.2129256568
         2 :         69    -17.0463396736   -433.9215540065
         3 :         81    -17.0463396736   -433.9215540065
         4 :         68    -16.9990159750   -433.8742303079
         5 :         74    -16.9990159750   -433.8742303079
         6 :         78    -16.8836743977   -433.7588887306
         7 :         96    -16.8836743977   -433.7588887306
         8 :         71    -16.8352685550   -433.7104828880


 Convergence threshold for CI optimization :     0.00000500



 *** Reached maximum number of CI iterations:    3
              1 CI roots are not converged.


@ Final CI energies and residuals in symmetry 1 (irrep A1 )
@    1     -434.261671434000675       4.69D-03

   --- OUTPUT FROM SIRCNO     Keyword = FD+NO 


 Occupations of CAS natural orbitals:

 Symmetry  1 ( irrep A1  in C2v )

   1.999829001

 Symmetry  2 ( irrep B1  in C2v )

   1.999835708

 Symmetry  3 ( irrep B2  in C2v )

   1.989075332   0.086185530

 Symmetry  4 ( irrep A2  in C2v )

   1.917004740   1.968758814   0.039310875


 --- MACRO ITERATION  1 ---
 --------------------------

 2-el. integral transformation level 3: Total CPU and WALL times (sec)     101.938     101.937

 Fock matrix screening setting for this macro iteration: 10^( -9)

 Total MCSCF energy       :          -434.261671437338975  (MACRO    1)

 - Nuclear repulsion      :           413.205305182988695
 - Inactive energy        :          -830.080519515829792
 - Active energy          :           -17.386457104497893

 Norm of total gradient   :             0.521449042404
 -    of CI gradient      :             0.009386270690
 -    of orbital gradient :             0.521364557433
      Virial theorem: -V/T =      2.000848
@    MULPOP   C       1.35; C   _1  0.33; C   _2  0.33; C   _1  0.50; C   _2  0.50; C       0.32; N       0.39; O   _1 -0.65; O   _2 -0.65; H   _1 -0.49; 
@             H   _2 -0.49; H   _1 -0.47; H   _2 -0.47; H      -0.48; 

 Residual norm when dim(red L) =   4
 NEO root     CSF        orbital          total
    1     0.07225510     0.02872121     0.07775414 converged

 (NEONEX) NEO vector is converged.

   --- OUTPUT FROM SIRCNO     Keyword = FD+NO 


 Occupations of CAS natural orbitals:

 Symmetry  1 ( irrep A1  in C2v )

   1.999829001

 Symmetry  2 ( irrep B1  in C2v )

   1.999835708

 Symmetry  3 ( irrep B2  in C2v )

   1.989075332   0.086185530

 Symmetry  4 ( irrep A2  in C2v )

   1.917004740   1.968758814   0.039310875


 --- MACRO ITERATION  2 ---
 --------------------------

 2-el. integral transformation level 3: Total CPU and WALL times (sec)     102.094     102.142

 Fock matrix screening setting for this macro iteration: 10^( -9)

 Total MCSCF energy       :          -434.281117733304143  (MACRO    2)

 - Nuclear repulsion      :           413.205305182988695
 - Inactive energy        :          -830.062140430527506
 - Active energy          :           -17.424282485765339

 Norm of total gradient   :             0.061891564972
 -    of CI gradient      :             0.054669999460
 -    of orbital gradient :             0.029013048335
      Virial theorem: -V/T =      2.001825
@    MULPOP   C       1.74; C   _1  0.18; C   _2  0.18; C   _1  0.50; C   _2  0.50; C       0.26; N       0.47; O   _1 -0.80; O   _2 -0.80; H   _1 -0.45; 
@             H   _2 -0.45; H   _1 -0.44; H   _2 -0.44; H      -0.44; 

 (SIRNEO) iteration (  2,  7)
 Micro iteration termination criterion met, EVAL(ISTATE+1) = -4.08D-04

   --- OUTPUT FROM SIRCNO     Keyword = FD+NO 


 Occupations of CAS natural orbitals:

 Symmetry  1 ( irrep A1  in C2v )

   1.999762149

 Symmetry  2 ( irrep B1  in C2v )

   1.998461095

 Symmetry  3 ( irrep B2  in C2v )

   1.989243726   0.125082115

 Symmetry  4 ( irrep A2  in C2v )

   1.877227073   1.964122173   0.046101669


 --- MACRO ITERATION  3 ---
 --------------------------

 2-el. integral transformation level 3: Total CPU and WALL times (sec)     102.656     102.704

 Fock matrix screening setting for this macro iteration: 10^( -9)

 Total MCSCF energy       :          -434.283221397384750  (MACRO    3)

 - Nuclear repulsion      :           413.205305182988695
 - Inactive energy        :          -830.482872730194231
 - Active energy          :           -17.005653850179222

 Norm of total gradient   :             0.027197970489
 -    of CI gradient      :             0.016616003509
 -    of orbital gradient :             0.021532255481
      Virial theorem: -V/T =      2.001702
@    MULPOP   C       1.74; C   _1  0.19; C   _2  0.19; C   _1  0.49; C   _2  0.49; C       0.26; N       0.43; O   _1 -0.78; O   _2 -0.78; H   _1 -0.45; 
@             H   _2 -0.45; H   _1 -0.44; H   _2 -0.44; H      -0.44; 

 (SIRNEO) iteration (  3,  8)
 Micro iteration termination criterion met, EVAL(ISTATE+1) = -5.66D-05

   --- OUTPUT FROM SIRCNO     Keyword = FD+NO 


 Occupations of CAS natural orbitals:

 Symmetry  1 ( irrep A1  in C2v )

   1.999788896

 Symmetry  2 ( irrep B1  in C2v )

   1.999100984

 Symmetry  3 ( irrep B2  in C2v )

   1.989400863   0.120362850

 Symmetry  4 ( irrep A2  in C2v )

   1.881305556   1.964957639   0.045083212


 --- MACRO ITERATION  4 ---
 --------------------------

 2-el. integral transformation level 3: Total CPU and WALL times (sec)     102.188     102.251

 Fock matrix screening setting for this macro iteration: 10^( -9)

 Total MCSCF energy       :          -434.283600930306875  (MACRO    4)

 - Nuclear repulsion      :           413.205305182988695
 - Inactive energy        :          -829.587476439595775
 - Active energy          :           -17.901429673699816

 Norm of total gradient   :             0.013074165767
 -    of CI gradient      :             0.009726558522
 -    of orbital gradient :             0.008736582274
      Virial theorem: -V/T =      2.001729
@    MULPOP   C       1.73; C   _1  0.19; C   _2  0.19; C   _1  0.49; C   _2  0.49; C       0.27; N       0.44; O   _1 -0.78; O   _2 -0.78; H   _1 -0.45; 
@             H   _2 -0.45; H   _1 -0.44; H   _2 -0.44; H      -0.45; 

 (SIRNEO) iteration (  4, 12)
 Micro iteration termination criterion met, EVAL(ISTATE+1) = -1.71D-05

   --- OUTPUT FROM SIRCNO     Keyword = FD+NO 


 Occupations of CAS natural orbitals:

 Symmetry  1 ( irrep A1  in C2v )

   1.999411711

 Symmetry  2 ( irrep B1  in C2v )

   1.999107421

 Symmetry  3 ( irrep B2  in C2v )

   1.988985754   0.122788529

 Symmetry  4 ( irrep A2  in C2v )

   1.879372937   1.964215507   0.046118140


 --- MACRO ITERATION  5 ---
 --------------------------

 2-el. integral transformation level 3: Total CPU and WALL times (sec)     102.766     102.787

 Fock matrix screening setting for this macro iteration: 10^( -9)

 Total MCSCF energy       :          -434.283985133198598  (MACRO    5)

 - Nuclear repulsion      :           413.205305182988695
 - Inactive energy        :          -829.323458113696688
 - Active energy          :           -18.165832202490623

 Norm of total gradient   :             0.006512724063
 -    of CI gradient      :             0.006245861052
 -    of orbital gradient :             0.001845208510
      Virial theorem: -V/T =      2.001719
@    MULPOP   C       1.73; C   _1  0.19; C   _2  0.19; C   _1  0.50; C   _2  0.50; C       0.26; N       0.44; O   _1 -0.78; O   _2 -0.78; H   _1 -0.45; 
@             H   _2 -0.45; H   _1 -0.44; H   _2 -0.44; H      -0.45; 

 Residual norm when dim(red L) =  12
 NEO root     CSF        orbital          total
    1     0.00106724     0.00058936     0.00121916 converged

 (NEONEX) NEO vector is converged.

   --- OUTPUT FROM SIRCNO     Keyword = FD+NO 


 Occupations of CAS natural orbitals:

 Symmetry  1 ( irrep A1  in C2v )

   1.998311279

 Symmetry  2 ( irrep B1  in C2v )

   1.999351486

 Symmetry  3 ( irrep B2  in C2v )

   1.988947575   0.122419653

 Symmetry  4 ( irrep A2  in C2v )

   1.880563177   1.964379214   0.046027615


 --- MACRO ITERATION  6 ---
 --------------------------

 2-el. integral transformation level 3: Total CPU and WALL times (sec)     102.344     102.374

 Fock matrix screening setting for this macro iteration: 10^( -9)

 Total MCSCF energy       :          -434.284325648532672  (MACRO    6)

 - Nuclear repulsion      :           413.205305182988695
 - Inactive energy        :          -829.597146650256263
 - Active energy          :           -17.892484181265107

 Norm of total gradient   :             0.010772066887
 -    of CI gradient      :             0.010082876014
 -    of orbital gradient :             0.003791178751
      Virial theorem: -V/T =      2.001716
@    MULPOP   C       1.73; C   _1  0.19; C   _2  0.19; C   _1  0.50; C   _2  0.50; C       0.26; N       0.44; O   _1 -0.78; O   _2 -0.78; H   _1 -0.45; 
@             H   _2 -0.45; H   _1 -0.44; H   _2 -0.44; H      -0.45; 

 Residual norm when dim(red L) =   9
 NEO root     CSF        orbital          total
    1     0.00123226     0.00074745     0.00144123 converged

 (NEONEX) NEO vector is converged.

   --- OUTPUT FROM SIRCNO     Keyword = FD+NO 


 Occupations of CAS natural orbitals:

 Symmetry  1 ( irrep A1  in C2v )

   1.998605930

 Symmetry  2 ( irrep B1  in C2v )

   1.999468963

 Symmetry  3 ( irrep B2  in C2v )

   1.988973062   0.121377978

 Symmetry  4 ( irrep A2  in C2v )

   1.881194860   1.964436237   0.045942970


 --- MACRO ITERATION  7 ---
 --------------------------

 2-el. integral transformation level 3: Total CPU and WALL times (sec)     102.000     102.056

 Fock matrix screening setting for this macro iteration: 10^( -9)

 Total MCSCF energy       :          -434.284360544331207  (MACRO    7)

 - Nuclear repulsion      :           413.205305182988695
 - Inactive energy        :          -829.473657163483040
 - Active energy          :           -18.016008563836873

 Norm of total gradient   :             0.001457286903
 -    of CI gradient      :             0.001246731677
 -    of orbital gradient :             0.000754549696
      Virial theorem: -V/T =      2.001718
@    MULPOP   C       1.73; C   _1  0.19; C   _2  0.19; C   _1  0.50; C   _2  0.50; C       0.26; N       0.44; O   _1 -0.78; O   _2 -0.78; H   _1 -0.45; 
@             H   _2 -0.45; H   _1 -0.44; H   _2 -0.44; H      -0.45; 

 Residual norm when dim(red L) =  24
 NEO root     CSF        orbital          total
    1     0.00000382     0.00000505     0.00000633 converged

 (NEONEX) NEO vector is converged.

   --- OUTPUT FROM SIRCNO     Keyword = FD+NO 


 Occupations of CAS natural orbitals:

 Symmetry  1 ( irrep A1  in C2v )

   1.998613905

 Symmetry  2 ( irrep B1  in C2v )

   1.999471972

 Symmetry  3 ( irrep B2  in C2v )

   1.988953548   0.121732572

 Symmetry  4 ( irrep A2  in C2v )

   1.880829258   1.964349338   0.046049406


 --- MACRO ITERATION  8 ---
 --------------------------

 2-el. integral transformation level 3: Total CPU and WALL times (sec)     102.281     102.316

 Fock matrix screening setting for this macro iteration: 10^( -9)

 Total MCSCF energy       :          -434.284361045909066  (MACRO    8)

 - Nuclear repulsion      :           413.205305182988695
 - Inactive energy        :          -829.459448633396732
 - Active energy          :           -18.030217595501043

 Norm of total gradient   :             0.000010647325
 -    of CI gradient      :             0.000008546145
 -    of orbital gradient :             0.000006350507
      Virial theorem: -V/T =      2.001718
@    MULPOP   C       1.73; C   _1  0.19; C   _2  0.19; C   _1  0.50; C   _2  0.50; C       0.26; N       0.44; O   _1 -0.78; O   _2 -0.78; H   _1 -0.45; 
@             H   _2 -0.45; H   _1 -0.44; H   _2 -0.44; H      -0.45; 

 Residual norm when dim(red L) =   4
 NEO root     CSF        orbital          total
    1     0.00000165     0.00000182     0.00000246 converged

 (NEONEX) NEO vector is converged.

   --- OUTPUT FROM SIRCNO     Keyword = FD+NO 


 Occupations of CAS natural orbitals:

 Symmetry  1 ( irrep A1  in C2v )

   1.998614104

 Symmetry  2 ( irrep B1  in C2v )

   1.999472078

 Symmetry  3 ( irrep B2  in C2v )

   1.988953592   0.121732176

 Symmetry  4 ( irrep A2  in C2v )

   1.880829363   1.964349215   0.046049472


 --- MACRO ITERATION  9 ---
 --------------------------

 2-el. integral transformation level 3: Total CPU and WALL times (sec)     101.969     102.042

 Fock matrix screening setting for this macro iteration: 10^( -9)

 Total MCSCF energy       :          -434.284361045930723  (MACRO    9)

 - Nuclear repulsion      :           413.205305182988695
 - Inactive energy        :          -829.459434167761401
 - Active energy          :           -18.030232061158038

 Norm of total gradient   :             0.000002456179
 -    of CI gradient      :             0.000001650632
 -    of orbital gradient :             0.000001818855
      Virial theorem: -V/T =      2.001718
@    MULPOP   C       1.73; C   _1  0.19; C   _2  0.19; C   _1  0.50; C   _2  0.50; C       0.26; N       0.44; O   _1 -0.78; O   _2 -0.78; H   _1 -0.45; 
@             H   _2 -0.45; H   _1 -0.44; H   _2 -0.44; H      -0.45; 

 (SIRSTP) Energy difference;
 actual, predicted and ratio:  -0.000000000021657  -0.000000000020442    1.059450
 Close to convergence, ratio set to one.

 *** Optimization control: MCSCF converged ***
     Number of macro iterations used            9
     Number of micro iterations used           71
     Total number of CPU seconds used      3813.70

 CPU and wall time for MCSCF :    3813.703    3815.271


                     .----------------------------------------.
                     | --- SIRIUS OPTIMIZATION STATISTICS --- |
                     `----------------------------------------'


 
     Date and time (Linux)  : Wed Feb 12 09:27:24 2020
     Host name              : Lab2-333-NPs                            


  ITER ITMIC     EMCSCF           GRDNRM        RATIO      STPLNG
 ---------------------------------------------------------------------
    1    3   -434.261671437339   0.5214490424  0.000000   0.1996946186
    2    7   -434.281117733304   0.0618915650  0.999117   0.7629516907
    3    8   -434.283221397385   0.0271979705  0.807341   0.6951136729
    4   12   -434.283600930307   0.0130741658  0.857919   0.6986051070
    5   10   -434.283985133199   0.0065127241  0.846888   0.6997720251
    6    7   -434.284325648533   0.0107720669  0.534072   0.1121876807
    7   22   -434.284360544331   0.0014572869  1.010085   0.0148741748
    8    2   -434.284361045909   0.0000106473  0.999781   0.0000339792
    9    0   -434.284361045931   0.0000024562  1.000000   0.0000000000


  ITER  INDGCM  GCIMAX      GCINRM     INDGOM  GOBMAX      GOBNRM      GRDNRM
 ------------------------------------------------------------------------------
    1     83    0.003450    0.009386   1568   -0.065719    0.521365    0.521449
    2     56    0.042094    0.054670   2522   -0.005140    0.029013    0.061892
    3      1   -0.015595    0.016616   1874   -0.005243    0.021532    0.027198
    4     26    0.007715    0.009727   2522   -0.001962    0.008737    0.013074
    5     26   -0.005172    0.006246   2660   -0.000498    0.001845    0.006513
    6     26   -0.008216    0.010083   2491   -0.002586    0.003791    0.010772
    7     32   -0.000476    0.001247   2697    0.000290    0.000755    0.001457
    8     26   -0.000005    0.000009   1634   -0.000001    0.000006    0.000011
    9      1    0.000001    0.000002   1634    0.000000    0.000002    0.000002


  ITER ITMIC NCLIN NOLIN   TIMMAC    TIMITR    TIMMIC    TIMLIN    TIMMIC/ITMIC
 ------------------------------------------------------------------------------

    1     3     0     3    257.98    101.94    125.08     94.41     41.69
    2     7     3     5    380.92    102.09    248.03    217.09     35.43
    3     8     1     8    421.17    102.66    287.30    255.30     35.91
    4    12     3    10    538.75    102.19    405.50    374.59     33.79
    5    10     4     7    471.50    102.77    337.75    306.81     33.77
    6     7     2     6    383.48    102.34    250.20    219.28     35.74
    7    22     8    15    837.38    102.00    704.19    673.30     32.01
    8     2     1     2    230.05    102.28     97.00     65.95     48.50
[...]
         1    1.77992D+00  1.40D+00  1.10D+00  1.38D+02    0.00000D+00

 ** RSPCTL MICROITERATION NUMBER    8

 *** INFO, negative eigenvalues in reduced matrix. Symmetry  4,  triplet       F Dimension of reduced matrix =    18

 GP * SOLUTION vector at frequency     0.00000 a.u.
 after    9 linear transformations is      7.67929179D+03
 INERTIA (POS,ZER,NEG) of reduced matrix is   17    0    1
 Determinant of reduced matrix is -3.52 * 10 **-12.0

       No.  Residual tot.,    conf., and orb.    Bnorm      Frequency 
      ----------------------------------------------------------------
         1    1.19927D+00  1.51D-01  1.19D+00  1.38D+02    0.00000D+00

 ** RSPCTL MICROITERATION NUMBER    9

 *** INFO, negative eigenvalues in reduced matrix. Symmetry  4,  triplet       F Dimension of reduced matrix =    20

 GP * SOLUTION vector at frequency     0.00000 a.u.
 after   10 linear transformations is      7.67993947D+03
 INERTIA (POS,ZER,NEG) of reduced matrix is   19    0    1
 Determinant of reduced matrix is -3.67 * 10 **-14.0

       No.  Residual tot.,    conf., and orb.    Bnorm      Frequency 
      ----------------------------------------------------------------
         1    7.26845D-01  2.16D-01  6.94D-01  1.39D+02    0.00000D+00

 ** RSPCTL MICROITERATION NUMBER   10

 *** INFO, negative eigenvalues in reduced matrix. Symmetry  4,  triplet       F Dimension of reduced matrix =    22

 GP * SOLUTION vector at frequency     0.00000 a.u.
 after   11 linear transformations is      7.68010662D+03
 INERTIA (POS,ZER,NEG) of reduced matrix is   21    0    1
 Determinant of reduced matrix is -2.15 * 10 **-15.0

       No.  Residual tot.,    conf., and orb.    Bnorm      Frequency 
      ----------------------------------------------------------------
         1    4.46372D-01  1.83D-01  4.07D-01  1.39D+02    0.00000D+00

 ** RSPCTL MICROITERATION NUMBER   11

 *** INFO, negative eigenvalues in reduced matrix. Symmetry  4,  triplet       F Dimension of reduced matrix =    24

 GP * SOLUTION vector at frequency     0.00000 a.u.
 after   12 linear transformations is      7.68013105D+03
 INERTIA (POS,ZER,NEG) of reduced matrix is   23    0    1
 Determinant of reduced matrix is -7.37 * 10 **-17.0

       No.  Residual tot.,    conf., and orb.    Bnorm      Frequency 
      ----------------------------------------------------------------
         1    1.86282D-01  1.66D-01  8.40D-02  1.39D+02    0.00000D+00

 ** RSPCTL MICROITERATION NUMBER   12

 *** INFO, negative eigenvalues in reduced matrix. Symmetry  4,  triplet       F Dimension of reduced matrix =    26

 GP * SOLUTION vector at frequency     0.00000 a.u.
 after   13 linear transformations is      7.68015439D+03
 INERTIA (POS,ZER,NEG) of reduced matrix is   25    0    1
 Determinant of reduced matrix is -6.79 * 10 **-17.0

       No.  Residual tot.,    conf., and orb.    Bnorm      Frequency 
      ----------------------------------------------------------------
         1    8.62371D-02  4.99D-02  7.04D-02  1.39D+02    0.00000D+00

 *** THE REQUESTED    1 SOLUTION VECTORS CONVERGED

 Convergence of RSP solution vectors, threshold = 1.00D-03
 ---------------------------------------------------------------
 (dimension of paired reduced space:   26)
 RSP solution vector no.    1; norm of residual   6.22D-04

 *** RSPCTL MICROITERATIONS CONVERGED
    XDIPLEN     YDIPLEN      freq1     freq2                Norm
 ---------------------------------------------------------------
                          0.058400 -0.058400        138.71166923


 Perturbation symmetry.     KSYMOP:       1
 Perturbation spin symmetry.TRPLET:       F
 Orbital variables.         KZWOPT:    2762
 Configuration variables.   KZCONF:     115
 Total number of variables. KZVAR :    2877


 CRLRV2 -- linear response calc for sym:  1
 CRLRV2 -- operator label1: YDIPLEN 
 CRLRV2 -- operator label2: YDIPLEN 
 CRLRV2 -- freqr1 :   5.840000D-02
 CRLRV2 -- freqr2 :   5.840000D-02



 ---  SOLVING SETS OF LINEAR EQUATIONS FOR LINEAR RESPONSE PROPERTIES ---

 Operator symmetry = 1  ( A1 ); triplet =   F


 ** RSPCTL MICROITERATION NUMBER    1

       No.  Residual tot.,    conf., and orb.    Bnorm      Frequency 
      ----------------------------------------------------------------
         1    1.61303D+01  1.17D+00  1.61D+01  8.69D+01    1.16800D-01

 ** RSPCTL MICROITERATION NUMBER    2

       No.  Residual tot.,    conf., and orb.    Bnorm      Frequency 
      ----------------------------------------------------------------
         1    7.30715D+00  1.31D+00  7.19D+00  9.21D+01    1.16800D-01

 ** RSPCTL MICROITERATION NUMBER    3

       No.  Residual tot.,    conf., and orb.    Bnorm      Frequency 
      ----------------------------------------------------------------
         1    2.93490D+00  1.50D+00  2.52D+00  9.40D+01    1.16800D-01

 ** RSPCTL MICROITERATION NUMBER    4

       No.  Residual tot.,    conf., and orb.    Bnorm      Frequency 
      ----------------------------------------------------------------
         1    1.81754D+00  1.60D+00  8.62D-01  9.46D+01    1.16800D-01

 ** RSPCTL MICROITERATION NUMBER    5

       No.  Residual tot.,    conf., and orb.    Bnorm      Frequency 
      ----------------------------------------------------------------
         1    1.46067D+00  5.38D-01  1.36D+00  9.49D+01    1.16800D-01

 ** RSPCTL MICROITERATION NUMBER    6

       No.  Residual tot.,    conf., and orb.    Bnorm      Frequency 
      ----------------------------------------------------------------
         1    1.31586D+00  6.90D-01  1.12D+00  9.60D+01    1.16800D-01

 ** RSPCTL MICROITERATION NUMBER    7

       No.  Residual tot.,    conf., and orb.    Bnorm      Frequency 
      ----------------------------------------------------------------
         1    9.10392D-01  7.77D-01  4.74D-01  9.70D+01    1.16800D-01

 ** RSPCTL MICROITERATION NUMBER    8

       No.  Residual tot.,    conf., and orb.    Bnorm      Frequency 
      ----------------------------------------------------------------
         1    6.66960D-01  3.29D-01  5.80D-01  9.73D+01    1.16800D-01

 ** RSPCTL MICROITERATION NUMBER    9

       No.  Residual tot.,    conf., and orb.    Bnorm      Frequency 
      ----------------------------------------------------------------
         1    3.90590D-01  3.35D-01  2.00D-01  9.76D+01    1.16800D-01

 ** RSPCTL MICROITERATION NUMBER   10

       No.  Residual tot.,    conf., and orb.    Bnorm      Frequency 
      ----------------------------------------------------------------
         1    2.86757D-01  5.62D-02  2.81D-01  9.80D+01    1.16800D-01

 ** RSPCTL MICROITERATION NUMBER   11

       No.  Residual tot.,    conf., and orb.    Bnorm      Frequency 
      ----------------------------------------------------------------
         1    1.31354D-01  6.63D-02  1.13D-01  9.79D+01    1.16800D-01

 ** RSPCTL MICROITERATION NUMBER   12

       No.  Residual tot.,    conf., and orb.    Bnorm      Frequency 
      ----------------------------------------------------------------
         1    7.65831D-02  6.97D-02  3.16D-02  9.78D+01    1.16800D-01

 *** THE REQUESTED    1 SOLUTION VECTORS CONVERGED

 Convergence of RSP solution vectors, threshold = 1.00D-03
 ---------------------------------------------------------------
 (dimension of paired reduced space:   26)
 RSP solution vector no.    1; norm of residual   7.83D-04

 *** RSPCTL MICROITERATIONS CONVERGED
    YDIPLEN     YDIPLEN      freq1     freq2                Norm
 ---------------------------------------------------------------
                          0.058400  0.058400         97.79079826
  Time used in CRVEC2     is       2 hours 13 minutes  1 second 


 ----- CALCULATING CONTRIBUTIONS TO SECOND HYPERPOLARIZABILITY -----


   Contribution                Term         Accumulated
 ------------------------------------------------------
 Na T[4] Nb Nc Nd    55196.67976756      55196.67976756
 Na T[3] Nx Nyz    -108921.38496293     -53724.70519537
 Na X[3] Ny Nz       56841.89600891       3117.19081354
 Nx A[3] Ny Nz       18947.29866964      22064.48948318
 Na X[2] Nyz        -17484.27193297       4580.21755021
 Nx A[2] Nyz        -39578.45446524     -34998.23691503

@ Cubic response function value in a.u. for
@ A operator, symmetry, frequency:   ZDIPLEN    1 -0.058400
@ B operator, symmetry, frequency:   ZDIPLEN    1  0.058400
@ C operator, symmetry, frequency:   ZDIPLEN    1 -0.058400
@ D operator, symmetry, frequency:   ZDIPLEN    1  0.058400

@ << A; B, C, D >>  =      -34998.23691503


 WARNING: Solution vector on RSPVEC converged to  3.83D-02
 WARNING: which is less than desired convergence  1.00D-03

 @WARNING---- Response labels XDIPLEN  ZDIPLEN  with frequencies   0.05840 -0.05840
 and symmetries    2   1 not converged on file RSPVEC


   Contribution                Term         Accumulated
 ------------------------------------------------------
 Na T[4] Nb Nc Nd   147572.86694147     147572.86694147
 Na T[3] Nx Nyz   -1604880.47055747   -1457307.60361600
 Na X[3] Ny Nz       56738.20876247   -1400569.39485352
 Nx A[3] Ny Nz       14184.62395527   -1386384.77089825
 Na X[2] Nyz        425242.76111590    -961142.00978236
 Nx A[2] Nyz        -90326.33286677   -1051468.34264912

@ Cubic response function value in a.u. for
@ A operator, symmetry, frequency:   XDIPLEN    2 -0.058400
@ B operator, symmetry, frequency:   XDIPLEN    2  0.058400
@ C operator, symmetry, frequency:   ZDIPLEN    1 -0.058400
@ D operator, symmetry, frequency:   ZDIPLEN    1  0.058400

@ << A; B, C, D >>  =    -1051468.34264912



   Contribution                Term         Accumulated
 ------------------------------------------------------
 Na T[4] Nb Nc Nd    -4161.58369779      -4161.58369779
 Na T[3] Nx Nyz      -1809.72617284      -5971.30987063
 Na X[3] Ny Nz        7818.41960300       1847.10973237
 Nx A[3] Ny Nz        2688.96840734       4536.07813972
 Na X[2] Nyz         -1632.88935413       2903.18878559
 Nx A[2] Nyz         -7097.84380058      -4194.65501499

@ Cubic response function value in a.u. for
@ A operator, symmetry, frequency:   YDIPLEN    3 -0.058400
@ B operator, symmetry, frequency:   YDIPLEN    3  0.058400
@ C operator, symmetry, frequency:   ZDIPLEN    1 -0.058400
@ D operator, symmetry, frequency:   ZDIPLEN    1  0.058400

@ << A; B, C, D >>  =       -4194.65501499


 WARNING: Solution vector on RSPVEC converged to  3.83D-02
 WARNING: which is less than desired convergence  1.00D-03

 @WARNING---- Response labels ZDIPLEN  XDIPLEN  with frequencies   0.05840 -0.05840
 and symmetries    1   2 not converged on file RSPVEC

 WARNING: Solution vector on RSPVEC converged to  3.83D-02
 WARNING: which is less than desired convergence  1.00D-03

 @WARNING---- Response labels XDIPLEN  ZDIPLEN  with frequencies  -0.05840  0.05840
 and symmetries    2   1 not converged on file RSPVEC


   Contribution                Term         Accumulated
 ------------------------------------------------------
 Na T[4] Nb Nc Nd   133825.08732824     133825.08732824
 Na T[3] Nx Nyz    -622549.86548446    -488724.77815622
 Na X[3] Ny Nz       55041.13857464    -433683.63958158
 Nx A[3] Ny Nz       13506.22213419    -420177.41744739
 Na X[2] Nyz        110818.54150224    -309358.87594515
 Nx A[2] Nyz        -41774.60956550    -351133.48551065

@ Cubic response function value in a.u. for
@ A operator, symmetry, frequency:   XDIPLEN    2 -0.058400
@ B operator, symmetry, frequency:   ZDIPLEN    1  0.058400
@ C operator, symmetry, frequency:   XDIPLEN    2 -0.058400
@ D operator, symmetry, frequency:   ZDIPLEN    1  0.058400

@ << A; B, C, D >>  =     -351133.48551065



   Contribution                Term         Accumulated
 ------------------------------------------------------
 Na T[4] Nb Nc Nd    -4056.00264863      -4056.00264863
 Na T[3] Nx Nyz      -1660.47863029      -5716.48127891
 Na X[3] Ny Nz        7561.99262938       1845.51135047
 Nx A[3] Ny Nz        2535.06888459       4380.58023506
 Na X[2] Nyz         -1619.28256820       2761.29766685
 Nx A[2] Nyz         -6788.27184483      -4026.97417798

@ Cubic response function value in a.u. for
@ A operator, symmetry, frequency:   YDIPLEN    3 -0.058400
@ B operator, symmetry, frequency:   ZDIPLEN    1  0.058400
@ C operator, symmetry, frequency:   YDIPLEN    3 -0.058400
@ D operator, symmetry, frequency:   ZDIPLEN    1  0.058400

@ << A; B, C, D >>  =       -4026.97417798


 WARNING: Solution vector on RSPVEC converged to  3.83D-02
 WARNING: which is less than desired convergence  1.00D-03

 @WARNING---- Response labels XDIPLEN  ZDIPLEN  with frequencies   0.05840 -0.05840
 and symmetries    2   1 not converged on file RSPVEC

 WARNING: Solution vector on RSPVEC converged to  3.83D-02
 WARNING: which is less than desired convergence  1.00D-03

 @WARNING---- Response labels ZDIPLEN  XDIPLEN  with frequencies  -0.05840  0.05840
 and symmetries    1   2 not converged on file RSPVEC


   Contribution                Term         Accumulated
 ------------------------------------------------------
 Na T[4] Nb Nc Nd   168666.11056700     168666.11056700
 Na T[3] Nx Nyz    -682100.19205308    -513434.08148608
 Na X[3] Ny Nz       75211.98356842    -438222.09791766
 Nx A[3] Ny Nz       29911.48524683    -408310.61267083
 Na X[2] Nyz        -54407.48077770    -462718.09344852
 Nx A[2] Nyz         77326.61842243    -385391.47502609

@ Cubic response function value in a.u. for
@ A operator, symmetry, frequency:   ZDIPLEN    1 -0.058400
@ B operator, symmetry, frequency:   XDIPLEN    2  0.058400
@ C operator, symmetry, frequency:   ZDIPLEN    1 -0.058400
@ D operator, symmetry, frequency:   XDIPLEN    2  0.058400

@ << A; B, C, D >>  =     -385391.47502609



   Contribution                Term         Accumulated
 ------------------------------------------------------
 Na T[4] Nb Nc Nd 15055305.42337099   15055305.42337099
 Na T[3] Nx Nyz  -15892417.93922947    -837112.51585848
 Na X[3] Ny Nz     1093102.50615515     255989.99029667
 Nx A[3] Ny Nz      364367.50205172     620357.49234838
 Na X[2] Nyz        147485.10618840     767842.59853678
 Nx A[2] Nyz       -482677.70618063     285164.89235615

@ Cubic response function value in a.u. for
@ A operator, symmetry, frequency:   XDIPLEN    2 -0.058400
@ B operator, symmetry, frequency:   XDIPLEN    2  0.058400
@ C operator, symmetry, frequency:   XDIPLEN    2 -0.058400
@ D operator, symmetry, frequency:   XDIPLEN    2  0.058400

@ << A; B, C, D >>  =      285164.89235615



   Contribution                Term         Accumulated
 ------------------------------------------------------
 Na T[4] Nb Nc Nd    -2124.29080395      -2124.29080395
 Na T[3] Nx Nyz      -4249.11343806      -6373.40424201
 Na X[3] Ny Nz       10801.22244479       4427.81820278
 Nx A[3] Ny Nz        1545.30894400       5973.12714678
 Na X[2] Nyz         -1297.96396113       4675.16318565
 Nx A[2] Nyz         -8430.22841750      -3755.06523185

@ Cubic response function value in a.u. for
@ A operator, symmetry, frequency:   YDIPLEN    3 -0.058400
@ B operator, symmetry, frequency:   YDIPLEN    3  0.058400
@ C operator, symmetry, frequency:   XDIPLEN    2 -0.058400
@ D operator, symmetry, frequency:   XDIPLEN    2  0.058400

@ << A; B, C, D >>  =       -3755.06523185



   Contribution                Term         Accumulated
 ------------------------------------------------------
 Na T[4] Nb Nc Nd    -2040.98836923      -2040.98836923
 Na T[3] Nx Nyz      -4722.92066934      -6763.90903857
 Na X[3] Ny Nz       10335.67937435       3571.77033578
 Nx A[3] Ny Nz        1197.78074736       4769.55108314
 Na X[2] Nyz          -559.76470788       4209.78637525
 Nx A[2] Nyz         -6788.30060269      -2578.51422743

@ Cubic response function value in a.u. for
@ A operator, symmetry, frequency:   YDIPLEN    3 -0.058400
@ B operator, symmetry, frequency:   XDIPLEN    2  0.058400
@ C operator, symmetry, frequency:   YDIPLEN    3 -0.058400
@ D operator, symmetry, frequency:   XDIPLEN    2  0.058400

@ << A; B, C, D >>  =       -2578.51422743



   Contribution                Term         Accumulated
 ------------------------------------------------------
 Na T[4] Nb Nc Nd     -131.74369619       -131.74369619
 Na T[3] Nx Nyz       1077.87535714        946.13166095
 Na X[3] Ny Nz         207.02366257       1153.15532352
 Nx A[3] Ny Nz          54.60321273       1207.75853624
 Na X[2] Nyz         -3496.78515866      -2289.02662242
 Nx A[2] Nyz         -1741.25522009      -4030.28184251

@ Cubic response function value in a.u. for
@ A operator, symmetry, frequency:   ZDIPLEN    1 -0.058400
@ B operator, symmetry, frequency:   YDIPLEN    3  0.058400
@ C operator, symmetry, frequency:   ZDIPLEN    1 -0.058400
@ D operator, symmetry, frequency:   YDIPLEN    3  0.058400

@ << A; B, C, D >>  =       -4030.28184251



   Contribution                Term         Accumulated
 ------------------------------------------------------
 Na T[4] Nb Nc Nd     5298.65034976       5298.65034976
 Na T[3] Nx Nyz       8182.46070251      13481.11105227
 Na X[3] Ny Nz       -6510.52452958       6970.58652269
 Nx A[3] Ny Nz          77.27086756       7047.85739026
 Na X[2] Nyz         -7727.21359945       -679.35620919
 Nx A[2] Nyz         -1884.99958582      -2564.35579501

@ Cubic response function value in a.u. for
@ A operator, symmetry, frequency:   XDIPLEN    2 -0.058400
@ B operator, symmetry, frequency:   YDIPLEN    3  0.058400
@ C operator, symmetry, frequency:   XDIPLEN    2 -0.058400
@ D operator, symmetry, frequency:   YDIPLEN    3  0.058400

@ << A; B, C, D >>  =       -2564.35579501



   Contribution                Term         Accumulated
 ------------------------------------------------------
 Na T[4] Nb Nc Nd     -514.32965925       -514.32965925
 Na T[3] Nx Nyz       2283.09176028       1768.76210103
 Na X[3] Ny Nz        1482.01024733       3250.77234836
 Nx A[3] Ny Nz         494.00341578       3744.77576414
 Na X[2] Nyz         -6788.58430644      -3043.80854231
 Nx A[2] Nyz         -6822.30680846      -9866.11535077

@ Cubic response function value in a.u. for
@ A operator, symmetry, frequency:   YDIPLEN    3 -0.058400
@ B operator, symmetry, frequency:   YDIPLEN    3  0.058400
@ C operator, symmetry, frequency:   YDIPLEN    3 -0.058400
@ D operator, symmetry, frequency:   YDIPLEN    3  0.058400

@ << A; B, C, D >>  =       -9866.11535077



  Summary of gamma values for a set of frequencies
 -------------------------------------------------

@ B-freq:  0.058400
@ C-freq: -0.058400
@ D-freq:  0.058400

@ gamma(X;X,X,X)    -285164.8924
@ gamma(X;X,Y,Y)       3755.0652
@ gamma(X;Y,Y,X)       3755.0652
@ gamma(X;Y,X,Y)       2564.3558
@ gamma(X;X,Z,Z)    1051468.3426
@ gamma(X;Z,Z,X)    1051468.3426
@ gamma(X;Z,X,Z)     351133.4855
@ gamma(Y;Y,X,X)       3755.0652
@ gamma(Y;X,X,Y)       3755.0652
@ gamma(Y;X,Y,X)       2578.5142
@ gamma(Y;Y,Y,Y)       9866.1154
@ gamma(Y;Y,Z,Z)       4194.6550
@ gamma(Y;Z,Z,Y)       4194.6550
@ gamma(Y;Z,Y,Z)       4026.9742
@ gamma(Z;Z,X,X)    1051468.3426
@ gamma(Z;X,X,Z)    1051468.3426
@ gamma(Z;X,Z,X)     385391.4750
@ gamma(Z;Z,Y,Y)       4194.6550
@ gamma(Z;Y,Y,Z)       4194.6550
@ gamma(Z;Y,Z,Y)       4030.2818
@ gamma(Z;Z,Z,Z)      34998.2369

@ Averaged gamma parallel to the applied field is    284433.047859

  Total CPU  time used in RESPONSE:   7 hours  9 minutes  4 seconds
  Total wall time used in RESPONSE:   7 hours  9 minutes 28 seconds


                   .-------------------------------------------.
                   | End of Dynamic Property Section (RESPONS) |
                   `-------------------------------------------'

  Total CPU  time used in DALTON:   8 hours 28 minutes  4 seconds
  Total wall time used in DALTON:   8 hours 28 minutes 32 seconds

 
     Date and time (Linux)  : Wed Feb 12 16:36:52 2020
     Host name              : Lab2-333-NPs                            
