

     ************************************************************************
     *************** Dalton - An Electronic Structure Program ***************
     ************************************************************************

    This is output from DALTON release Dalton2018.1 (2019)
         ( Web site: http://daltonprogram.org )

   ----------------------------------------------------------------------------

    NOTE:
     
    Dalton is an experimental code for the evaluation of molecular
    properties using (MC)SCF, DFT, CI, and CC wave functions.
    The authors accept no responsibility for the performance of
    the code or for the correctness of the results.
     
    The code (in whole or part) is provided under a licence and
    is not to be reproduced for further distribution without
    the written permission of the authors or their representatives.
     
    See the home page "http://daltonprogram.org" for further information.
     
    If results obtained with this code are published,
    the appropriate citations would be both of:
     
       K. Aidas, C. Angeli, K. L. Bak, V. Bakken, R. Bast,
       L. Boman, O. Christiansen, R. Cimiraglia, S. Coriani,
       P. Dahle, E. K. Dalskov, U. Ekstroem,
       T. Enevoldsen, J. J. Eriksen, P. Ettenhuber, B. Fernandez,
       L. Ferrighi, H. Fliegl, L. Frediani, K. Hald, A. Halkier,
       C. Haettig, H. Heiberg, T. Helgaker, A. C. Hennum,
       H. Hettema, E. Hjertenaes, S. Hoest, I.-M. Hoeyvik,
       M. F. Iozzi, B. Jansik, H. J. Aa. Jensen, D. Jonsson,
       P. Joergensen, J. Kauczor, S. Kirpekar,
       T. Kjaergaard, W. Klopper, S. Knecht, R. Kobayashi, H. Koch,
       J. Kongsted, A. Krapp, K. Kristensen, A. Ligabue,
       O. B. Lutnaes, J. I. Melo, K. V. Mikkelsen, R. H. Myhre,
       C. Neiss, C. B. Nielsen, P. Norman, J. Olsen,
       J. M. H. Olsen, A. Osted, M. J. Packer, F. Pawlowski,
       T. B. Pedersen, P. F. Provasi, S. Reine, Z. Rinkevicius,
       T. A. Ruden, K. Ruud, V. Rybkin, P. Salek, C. C. M. Samson,
       A. Sanchez de Meras, T. Saue, S. P. A. Sauer,
       B. Schimmelpfennig, K. Sneskov, A. H. Steindal,
       K. O. Sylvester-Hvid, P. R. Taylor, A. M. Teale,
       E. I. Tellgren, D. P. Tew, A. J. Thorvaldsen, L. Thoegersen,
       O. Vahtras, M. A. Watson, D. J. D. Wilson, M. Ziolkowski
       and H. Agren,
       "The Dalton quantum chemistry program system",
       WIREs Comput. Mol. Sci. 2014, 4:269–284 (doi: 10.1002/wcms.1172)
     
    and
     
       Dalton, a molecular electronic structure program,
       Release Dalton2018.1 (2019), see http://daltonprogram.org
   ----------------------------------------------------------------------------

    Authors in alphabetical order (major contribution(s) in parenthesis):

  Kestutis Aidas,           Vilnius University,           Lithuania   (QM/MM)
  Celestino Angeli,         University of Ferrara,        Italy       (NEVPT2)
  Keld L. Bak,              UNI-C,                        Denmark     (AOSOPPA, non-adiabatic coupling, magnetic properties)
  Vebjoern Bakken,          University of Oslo,           Norway      (DALTON; geometry optimizer, symmetry detection)
  Radovan Bast,             UiT The Arctic U. of Norway,  Norway      (DALTON installation and execution frameworks)
  Pablo Baudin,             University of Valencia,       Spain       (Cholesky excitation energies)
  Linus Boman,              NTNU,                         Norway      (Cholesky decomposition and subsystems)
  Ove Christiansen,         Aarhus University,            Denmark     (CC module)
  Renzo Cimiraglia,         University of Ferrara,        Italy       (NEVPT2)
  Sonia Coriani,            Technical Univ. of Denmark,   Denmark     (CC module, MCD in RESPONS)
  Janusz Cukras,            University of Trieste,        Italy       (MChD in RESPONS)
  Paal Dahle,               University of Oslo,           Norway      (Parallelization)
  Erik K. Dalskov,          UNI-C,                        Denmark     (SOPPA)
  Thomas Enevoldsen,        Univ. of Southern Denmark,    Denmark     (SOPPA)
  Janus J. Eriksen,         Aarhus University,            Denmark     (Polarizable embedding model, TDA)
  Rasmus Faber,             University of Copenhagen,     Denmark     (Vib.avg. NMR with SOPPA, parallel AO-SOPPA)
  Tobias Fahleson,          KTH Stockholm,                Sweden      (Damped cubic response)
  Berta Fernandez,          U. of Santiago de Compostela, Spain       (doublet spin, ESR in RESPONS)
  Lara Ferrighi,            Aarhus University,            Denmark     (PCM Cubic response)
  Heike Fliegl,             University of Oslo,           Norway      (CCSD(R12))
  Luca Frediani,            UiT The Arctic U. of Norway,  Norway      (PCM)
  Bin Gao,                  UiT The Arctic U. of Norway,  Norway      (Gen1Int library)
  Christof Haettig,         Ruhr-University Bochum,       Germany     (CC module)
  Kasper Hald,              Aarhus University,            Denmark     (CC module)
  Asger Halkier,            Aarhus University,            Denmark     (CC module)
  Frederik Beyer Hansen,    University of Copenhagen,     Denmark     (Parallel AO-SOPPA)
  Erik D. Hedegaard,        Univ. of Southern Denmark,    Denmark     (Polarizable embedding model, QM/MM)
  Hanne Heiberg,            University of Oslo,           Norway      (geometry analysis, selected one-electron integrals)
  Trygve Helgaker,          University of Oslo,           Norway      (DALTON; ABACUS, ERI, DFT modules, London, and much more)
  Alf Christian Hennum,     University of Oslo,           Norway      (Parity violation)
  Hinne Hettema,            University of Auckland,       New Zealand (quadratic response in RESPONS; SIRIUS supersymmetry)
  Eirik Hjertenaes,         NTNU,                         Norway      (Cholesky decomposition)
  Pi A. B. Haase,           University of Copenhagen,     Denmark     (Triplet AO-SOPPA)
  Maria Francesca Iozzi,    University of Oslo,           Norway      (RPA)
  Christoph Jacob           TU Braunschweig               Germany     (Frozen density embedding model)
  Brano Jansik              Technical Univ. of Ostrava    Czech Rep.  (DFT cubic response)
  Hans Joergen Aa. Jensen,  Univ. of Southern Denmark,    Denmark     (DALTON; SIRIUS, RESPONS, ABACUS modules, London, and much more)
  Dan Jonsson,              UiT The Arctic U. of Norway,  Norway      (cubic response in RESPONS module)
  Poul Joergensen,          Aarhus University,            Denmark     (RESPONS, ABACUS, and CC modules)
  Maciej Kaminski,          University of Warsaw,         Poland      (CPPh in RESPONS)
  Joanna Kauczor,           Linkoeping University,        Sweden      (Complex polarization propagator (CPP) module)
  Sheela Kirpekar,          Univ. of Southern Denmark,    Denmark     (Mass-velocity & Darwin integrals)
  Wim Klopper,              KIT Karlsruhe,                Germany     (R12 code in CC, SIRIUS, and ABACUS modules)
  Stefan Knecht,            ETH Zurich,                   Switzerland (Parallel CI and MCSCF)
  Rika Kobayashi,           Australian National Univ.,    Australia   (DIIS in CC, London in MCSCF)
  Henrik Koch,              NTNU,                         Norway      (CC module, Cholesky decomposition)
  Jacob Kongsted,           Univ. of Southern Denmark,    Denmark     (Polarizable embedding model, QM/MM)
  Andrea Ligabue,           University of Modena,         Italy       (CTOCD, AOSOPPA)
  Nanna H. List             Univ. of Southern Denmark,    Denmark     (Polarizable embedding model)
  Ola B. Lutnaes,           University of Oslo,           Norway      (DFT Hessian)
  Juan I. Melo,             University of Buenos Aires,   Argentina   (LRESC, Relativistic Effects on NMR Shieldings)
  Kurt V. Mikkelsen,        University of Copenhagen,     Denmark     (MC-SCRF and QM/MM)
  Rolf H. Myhre,            NTNU,                         Norway      (Subsystems and CC3)
  Christian Neiss,          Univ. Erlangen-Nuernberg,     Germany     (CCSD(R12))
  Christian B. Nielsen,     University of Copenhagen,     Denmark     (QM/MM)
  Patrick Norman,           KTH Stockholm,                Sweden      (Cubic response and complex frequency response in RESPONS)
  Jeppe Olsen,              Aarhus University,            Denmark     (SIRIUS CI/density modules)
  Jogvan Magnus H. Olsen,   Univ. of Southern Denmark,    Denmark     (Polarizable embedding model, QM/MM)
  Anders Osted,             Copenhagen University,        Denmark     (QM/MM)
  Martin J. Packer,         University of Sheffield,      UK          (SOPPA)
  Filip Pawlowski,          Kazimierz Wielki University,  Poland      (CC3)
  Morten N. Pedersen,       Univ. of Southern Denmark,    Denmark     (Polarizable embedding model)
  Thomas B. Pedersen,       University of Oslo,           Norway      (Cholesky decomposition)
  Patricio F. Provasi,      University of Northeastern,   Argentina   (Analysis of coupling constants in localized orbitals)
  Zilvinas Rinkevicius,     KTH Stockholm,                Sweden      (open-shell DFT, ESR)
  Elias Rudberg,            KTH Stockholm,                Sweden      (DFT grid and basis info)
  Torgeir A. Ruden,         University of Oslo,           Norway      (Numerical derivatives in ABACUS)
  Kenneth Ruud,             UiT The Arctic U. of Norway,  Norway      (DALTON; ABACUS magnetic properties and much more)
  Pawel Salek,              KTH Stockholm,                Sweden      (DALTON; DFT code)
  Claire C. M. Samson       University of Karlsruhe       Germany     (Boys localization, r12 integrals in ERI)
  Alfredo Sanchez de Meras, University of Valencia,       Spain       (CC module, Cholesky decomposition)
  Trond Saue,               Paul Sabatier University,     France      (direct Fock matrix construction)
  Stephan P. A. Sauer,      University of Copenhagen,     Denmark     (SOPPA(CCSD), SOPPA prop., AOSOPPA, vibrational g-factors)
  Andre S. P. Gomes,        CNRS/Universite de Lille,     France      (Frozen density embedding model)
  Bernd Schimmelpfennig,    Forschungszentrum Karlsruhe,  Germany     (AMFI module)
  Kristian Sneskov,         Aarhus University,            Denmark     (Polarizable embedding model, QM/MM)
  Arnfinn H. Steindal,      UiT The Arctic U. of Norway,  Norway      (parallel QM/MM, Polarizable embedding model)
  Casper Steinmann,         Univ. of Southern Denmark,    Denmark     (QFIT, Polarizable embedding model)
  K. O. Sylvester-Hvid,     University of Copenhagen,     Denmark     (MC-SCRF)
  Peter R. Taylor,          VLSCI/Univ. of Melbourne,     Australia   (Symmetry handling ABACUS, integral transformation)
  Andrew M. Teale,          University of Nottingham,     England     (DFT-AC, DFT-D)
  David P. Tew,             University of Bristol,        England     (CCSD(R12))
  Olav Vahtras,             KTH Stockholm,                Sweden      (triplet response, spin-orbit, ESR, TDDFT, open-shell DFT)
  Lucas Visscher,           Vrije Universiteit Amsterdam, Netherlands (Frozen density embedding model)
  David J. Wilson,          La Trobe University,          Australia   (DFT Hessian and DFT magnetizabilities)
  Hans Agren,               KTH Stockholm,                Sweden      (SIRIUS module, RESPONS, MC-SCRF solvation model)
 --------------------------------------------------------------------------------

     Date and time (Linux)  : Mon Feb 10 21:07:59 2020
     Host name              : Lab2-333-NPs                            

 * Work memory size             :  1024000000 =  7.629 gigabytes.

 * Directories for basis set searches:
   1) /home/lab333/dalton/build_2018_atlas
   2) /home/lab333/dalton/build_2018_atlas/basis


Compilation information
-----------------------

 Who compiled             | lab333
 Host                     | Lab2-333-NPs
 System                   | Linux-4.4.0-43-Microsoft
 CMake generator          | Unix Makefiles
 Processor                | x86_64
 64-bit integers          | OFF
 MPI                      | OFF
 Fortran compiler         | /usr/bin/gfortran
 Fortran compiler version | GNU Fortran (Ubuntu 7.3.0-27ubuntu1~18.04) 7.3.0
 C compiler               | /usr/bin/gcc
 C compiler version       | gcc (Ubuntu 7.3.0-27ubuntu1~18.04) 7.3.0
 C++ compiler             | /usr/bin/g++
 C++ compiler version     | g++ (Ubuntu 7.3.0-27ubuntu1~18.04) 7.3.0
 BLAS                     | /usr/lib/x86_64-linux-gnu/libf77blas.so;/usr/lib/x
                          | 86_64-linux-gnu/libcblas.so;/usr/lib/x86_64-linux-
                          | gnu/libatlas.so
 LAPACK                   | /usr/lib/x86_64-linux-gnu/libatlas.so;/usr/lib/x86
                          | _64-linux-gnu/atlas/liblapack.so
 Static linking           | OFF
 Last Git revision        | da625bf48c74028e805616daee31bc5d76b3a20d
 Git branch               | (HEAD detached at Dalton2018.1)
 Configuration time       | 2019-01-18 10:20:51.437510


   Content of the .dal input file
 ----------------------------------

**DALTON INPUT
.RUN RESPONSE
.DIRECT
**WAVE FUNCTIONS
.HF
.MP2
.MCSCF
*CONFIGURATION INPUT
.SPIN MULTIPLICITY
1
.SYMMETRY
1
.INACTIVE ORBITALS
15 10 2 0
.CAS SPACE
1 1 2 3
.ELECTRONS
10
*ORBITAL INPUT
.MOSTART
.HUCKEL
*OPTIMIZATION
.DETERMINANTS
.STATE
1
*CI VECTOR
.PLUS COMBINATIONS
**RESPONSE
*CUBIC
.DIPLEN
.BFREQ
1
0.0584
.CFREQ
1
-0.0584
.DFREQ
1
0.0584
**END OF DALTON INPUT


   Content of the .mol file
 ----------------------------

BASIS
aug-cc-pCVDZ
 nitrobenzene
 Generated by the Dalton Input File Plugin for Avogadro
Atomtypes=4 Angstrom Generators=2 X Y
Charge=6.0 Atoms=4
C        0.0000000000            0.0000000000           -0.0265759623
C       -1.2190534920            0.0000000000           -0.6979856948
C       -1.2105095870            0.0000000000           -2.0897394457
C        0.0000000000            0.0000000000           -2.7841484631
Charge=7.0 Atoms=1
N        0.0000000000            0.0000000000            1.4549291696
Charge=8.0 Atoms=1
O       1.0508030234638337            0.0            2.0841015225885364
Charge=1.0 Atoms=3
H       -2.1410602955            0.0000000000           -0.1327964319
H       -2.1492827751            0.0000000000           -2.6311811056
H        0.0000000000            0.0000000000           -3.8683953478


       *******************************************************************
       *********** Output from DALTON general input processing ***********
       *******************************************************************

 --------------------------------------------------------------------------------
   Overall default print level:    0
   Print level for DALTON.STAT:    1

    AO-direct calculation (in sections where implemented)
    HERMIT 1- and 2-electron integral sections will be executed
    "Old" integral transformation used (limited to max 255 basis functions)
    Wave function sections will be executed (SIRIUS module)
    Dynamic molecular response properties section will be executed (RESPONSE module)
 --------------------------------------------------------------------------------


   ****************************************************************************
   *************** Output of molecule and basis set information ***************
   ****************************************************************************


    The two title cards from your ".mol" input:
    ------------------------------------------------------------------------
 1:  nitrobenzene                                                           
 2:  Generated by the Dalton Input File Plugin for Avogadro                 
    ------------------------------------------------------------------------

  Coordinates are entered in Angstrom and converted to atomic units.
          - Conversion factor : 1 bohr = 0.52917721 A

  Atomic type no.    1
  --------------------
  Nuclear charge:   6.00000
  Number of symmetry independent centers:    4
  Number of basis sets to read;    2
  Basis set file used for this atomic type with Z =   6 :
     "/home/lab333/dalton/build_2018_atlas/basis/aug-cc-pCVDZ"

  Atomic type no.    2
  --------------------
  Nuclear charge:   7.00000
  Number of symmetry independent centers:    1
  Number of basis sets to read;    2
  Basis set file used for this atomic type with Z =   7 :
     "/home/lab333/dalton/build_2018_atlas/basis/aug-cc-pCVDZ"

  Atomic type no.    3
  --------------------
  Nuclear charge:   8.00000
  Number of symmetry independent centers:    1
  Number of basis sets to read;    2
  Basis set file used for this atomic type with Z =   8 :
     "/home/lab333/dalton/build_2018_atlas/basis/aug-cc-pCVDZ"

  Atomic type no.    4
  --------------------
  Nuclear charge:   1.00000
  Number of symmetry independent centers:    3
  Number of basis sets to read;    2
  Basis set file used for this atomic type with Z =   1 :
     "/home/lab333/dalton/build_2018_atlas/basis/aug-cc-pCVDZ"


                         SYMGRP: Point group information
                         -------------------------------

@    Point group: C2v

@  * The irrep name for each symmetry:    1: A1     2: B1     3: B2     4: A2 

   * The point group was generated by:

      Reflection in the yz-plane
      Reflection in the xz-plane

   * Group multiplication table

        |  E   C2z  Oxz  Oyz
   -----+--------------------
     E  |  E   C2z  Oxz  Oyz
    C2z | C2z   E   Oyz  Oxz
    Oxz | Oxz  Oyz   E   C2z
    Oyz | Oyz  Oxz  C2z   E 

   * Character table

        |  E   C2z  Oxz  Oyz
   -----+--------------------
    A1  |   1    1    1    1
    B1  |   1   -1    1   -1
    B2  |   1   -1   -1    1
    A2  |   1    1   -1   -1

   * Direct product table

        | A1   B1   B2   A2 
   -----+--------------------
    A1  | A1   B1   B2   A2 
    B1  | B1   A1   A2   B2 
    B2  | B2   A2   A1   B1 
    A2  | A2   B2   B1   A1 


                                 Isotopic Masses
                                 ---------------

                           C          12.000000
                           C   _1     12.000000
                           C   _2     12.000000
                           C   _1     12.000000
                           C   _2     12.000000
                           C          12.000000
                           N          14.003074
                           O   _1     15.994915
                           O   _2     15.994915
                           H   _1      1.007825
                           H   _2      1.007825
                           H   _1      1.007825
                           H   _2      1.007825
                           H           1.007825

                       Total mass:   123.032029 amu
                       Natural abundance:  92.716 %

 Center-of-mass coordinates (a.u.):    0.000000    0.000000   -0.354200


  Atoms and basis sets
  --------------------

  Number of atom types :    4
  Total number of atoms:   14

  Basis set used is "aug-cc-pCVDZ" from the basis set library.

  label    atoms   charge   prim   cont     basis
  ----------------------------------------------------------------------
  C           6    6.0000    39    27      [11s6p2d|5s4p2d]                                   
  N           1    7.0000    39    27      [11s6p2d|5s4p2d]                                   
  O           2    8.0000    39    27      [11s6p2d|5s4p2d]                                   
  H           5    1.0000    11     9      [5s2p|3s2p]                                        
  ----------------------------------------------------------------------
  total:     14   64.0000   406   288
  ----------------------------------------------------------------------
  Spherical harmonic basis used.

  Threshold for neglecting AO integrals:  1.00D-12


  Symmetry Coordinates
  --------------------

  Number of coordinates in each symmetry:    14   14    9    5


   Interatomic separations (in Angstrom):
   --------------------------------------

            C           C   _1      C   _2      C   _1      C   _2      C     
            ------      ------      ------      ------      ------      ------
 C     :    0.000000
 C   _1:    1.391719    0.000000
 C   _2:    1.391719    2.438107    0.000000
 C   _1:    2.392065    1.391780    2.799956    0.000000
 C   _2:    2.392065    2.799956    1.391780    2.421019    0.000000
 C     :    2.757573    2.416230    2.416230    1.395542    1.395542    0.000000
 N     :    1.481505    2.474093    2.474093    3.745665    3.745665    4.239078
 O   _1:    2.357784    3.590579    2.787170    4.747050    4.176895    4.980366
 O   _2:    2.357784    2.787170    3.590579    4.176895    4.747050    4.980366
 H   _1:    2.143694    1.081451    3.407316    2.166922    3.881063    3.407904
 H   _2:    2.143694    3.407316    1.081451    3.881063    2.166922    3.407904
 H   _1:    3.376890    2.145360    3.883675    1.083722    3.403140    2.154719
 H   _2:    3.376890    3.883675    2.145360    3.403140    1.083722    2.154719
 H     :    3.841819    3.396703    3.396703    2.151500    2.151500    1.084247

            N           O   _1      O   _2      H   _1      H   _2      H   _1
            ------      ------      ------      ------      ------      ------
 N     :    0.000000
 O   _1:    1.224763    0.000000
 O   _2:    1.224763    2.101606    0.000000
 H   _1:    2.665523    3.886210    2.470485    0.000000
 H   _2:    2.665523    2.470485    3.886210    4.282121    0.000000
 H   _1:    4.616894    5.698635    4.841544    2.498398    4.964773    0.000000
 H   _2:    4.616894    4.841544    5.698635    4.964773    2.498398    4.298566
 H     :    5.323325    6.044535    6.044535    4.305675    4.305675    2.479943

            H   _2      H     
            ------      ------
 H   _2:    0.000000
 H     :    2.479943    0.000000


  Max    interatomic separation is    6.0445 Angstrom (   11.4225 Bohr)
  between atoms   14 and    8, "H     " and "O   _1".

  Min HX interatomic separation is    1.0815 Angstrom (    2.0436 Bohr)

  Min YX interatomic separation is    1.2248 Angstrom (    2.3145 Bohr)


  Bond distances (Angstrom):
  --------------------------

                  atom 1     atom 2       distance
                  ------     ------       --------
  bond distance:  C   _1     C            1.391719
  bond distance:  C   _2     C            1.391719
  bond distance:  C   _1     C   _1       1.391780
  bond distance:  C   _2     C   _2       1.391780
  bond distance:  C          C   _1       1.395542
  bond distance:  C          C   _2       1.395542
  bond distance:  N          C            1.481505
  bond distance:  O   _1     N            1.224763
  bond distance:  O   _2     N            1.224763
  bond distance:  H   _1     C   _1       1.081451
  bond distance:  H   _2     C   _2       1.081451
  bond distance:  H   _1     C   _1       1.083722
  bond distance:  H   _2     C   _2       1.083722
  bond distance:  H          C            1.084247


  Bond angles (degrees):
  ----------------------

                  atom 1     atom 2     atom 3         angle
                  ------     ------     ------         -----
  bond angle:     C   _1     C          C   _2       122.311
  bond angle:     C   _1     C          N            118.844
  bond angle:     C   _2     C          N            118.844
  bond angle:     C          C   _1     C   _1       118.493
  bond angle:     C          C   _1     H   _1       119.647
  bond angle:     C   _1     C   _1     H   _1       121.860
  bond angle:     C          C   _2     C   _2       118.493
  bond angle:     C          C   _2     H   _2       119.647
  bond angle:     C   _2     C   _2     H   _2       121.860
  bond angle:     C   _1     C   _1     C            120.192
  bond angle:     C   _1     C   _1     H   _1       119.623
  bond angle:     C          C   _1     H   _1       120.185
  bond angle:     C   _2     C   _2     C            120.192
  bond angle:     C   _2     C   _2     H   _2       119.623
  bond angle:     C          C   _2     H   _2       120.185
  bond angle:     C   _1     C          C   _2       120.319
  bond angle:     C   _1     C          H            119.841
  bond angle:     C   _2     C          H            119.841
  bond angle:     C          N          O   _1       120.911
  bond angle:     C          N          O   _2       120.911
  bond angle:     O   _1     N          O   _2       118.178




 Principal moments of inertia (u*A**2) and principal axes
 --------------------------------------------------------

   IA     124.708098          0.000000    0.000000    1.000000
   IB     402.865458          1.000000    0.000000    0.000000
   IC     527.573556          0.000000    1.000000    0.000000


 Rotational constants
 --------------------

@    The molecule is planar.

               A                   B                   C

           4052.4955           1254.4610            957.9309 MHz
            0.135177            0.041844            0.031953 cm-1


@  Nuclear repulsion energy :  411.248313587293 Hartree


  Symmetry Orbitals
  -----------------

  Number of orbitals in each symmetry:         115   91   48   34


  Symmetry  A1 ( 1)

    1     C        1s         1
    2     C        1s         2
    3     C        1s         3
    4     C        1s         4
    5     C        1s         5
    6     C        2pz        8
    7     C        2pz       11
    8     C        2pz       14
    9     C        2pz       17
   10     C        3d0       20
   11     C        3d2+      22
   12     C        3d0       25
   13     C        3d2+      27
   14     C        1s        28 +   29
   15     C        1s        30 +   31
   16     C        1s        32 +   33
   17     C        1s        34 +   35
   18     C        1s        36 +   37
   19     C        2px       38 -   39
   20     C        2pz       42 +   43
   21     C        2px       44 -   45
   22     C        2pz       48 +   49
   23     C        2px       50 -   51
   24     C        2pz       54 +   55
   25     C        2px       56 -   57
   26     C        2pz       60 +   61
   27     C        3d0       66 +   67
   28     C        3d1+      68 -   69
   29     C        3d2+      70 +   71
   30     C        3d0       76 +   77
   31     C        3d1+      78 -   79
   32     C        3d2+      80 +   81
   33     C        1s        82 +   83
   34     C        1s        84 +   85
   35     C        1s        86 +   87
   36     C        1s        88 +   89
   37     C        1s        90 +   91
   38     C        2px       92 -   93
   39     C        2pz       96 +   97
   40     C        2px       98 -   99
   41     C        2pz      102 +  103
   42     C        2px      104 -  105
   43     C        2pz      108 +  109
   44     C        2px      110 -  111
   45     C        2pz      114 +  115
   46     C        3d0      120 +  121
   47     C        3d1+     122 -  123
   48     C        3d2+     124 +  125
   49     C        3d0      130 +  131
   50     C        3d1+     132 -  133
   51     C        3d2+     134 +  135
   52     C        1s       136
   53     C        1s       137
   54     C        1s       138
   55     C        1s       139
   56     C        1s       140
   57     C        2pz      143
   58     C        2pz      146
   59     C        2pz      149
   60     C        2pz      152
   61     C        3d0      155
   62     C        3d2+     157
   63     C        3d0      160
   64     C        3d2+     162
   65     N        1s       163
   66     N        1s       164
   67     N        1s       165
   68     N        1s       166
   69     N        1s       167
   70     N        2pz      170
   71     N        2pz      173
   72     N        2pz      176
   73     N        2pz      179
   74     N        3d0      182
   75     N        3d2+     184
   76     N        3d0      187
   77     N        3d2+     189
   78     O        1s       190 +  191
   79     O        1s       192 +  193
   80     O        1s       194 +  195
   81     O        1s       196 +  197
   82     O        1s       198 +  199
   83     O        2px      200 -  201
   84     O        2pz      204 +  205
   85     O        2px      206 -  207
   86     O        2pz      210 +  211
   87     O        2px      212 -  213
   88     O        2pz      216 +  217
   89     O        2px      218 -  219
   90     O        2pz      222 +  223
   91     O        3d0      228 +  229
   92     O        3d1+     230 -  231
   93     O        3d2+     232 +  233
   94     O        3d0      238 +  239
   95     O        3d1+     240 -  241
   96     O        3d2+     242 +  243
   97     H        1s       244 +  245
   98     H        1s       246 +  247
   99     H        1s       248 +  249
  100     H        2px      250 -  251
  101     H        2pz      254 +  255
  102     H        2px      256 -  257
  103     H        2pz      260 +  261
  104     H        1s       262 +  263
  105     H        1s       264 +  265
  106     H        1s       266 +  267
  107     H        2px      268 -  269
  108     H        2pz      272 +  273
  109     H        2px      274 -  275
  110     H        2pz      278 +  279
  111     H        1s       280
  112     H        1s       281
  113     H        1s       282
  114     H        2pz      285
  115     H        2pz      288


  Symmetry  B1 ( 2)

  116     C        2px        6
  117     C        2px        9
  118     C        2px       12
  119     C        2px       15
  120     C        3d1+      21
  121     C        3d1+      26
  122     C        1s        28 -   29
  123     C        1s        30 -   31
  124     C        1s        32 -   33
  125     C        1s        34 -   35
  126     C        1s        36 -   37
  127     C        2px       38 +   39
  128     C        2pz       42 -   43
  129     C        2px       44 +   45
  130     C        2pz       48 -   49
  131     C        2px       50 +   51
  132     C        2pz       54 -   55
  133     C        2px       56 +   57
  134     C        2pz       60 -   61
  135     C        3d0       66 -   67
  136     C        3d1+      68 +   69
  137     C        3d2+      70 -   71
  138     C        3d0       76 -   77
  139     C        3d1+      78 +   79
  140     C        3d2+      80 -   81
  141     C        1s        82 -   83
  142     C        1s        84 -   85
  143     C        1s        86 -   87
  144     C        1s        88 -   89
  145     C        1s        90 -   91
  146     C        2px       92 +   93
  147     C        2pz       96 -   97
  148     C        2px       98 +   99
  149     C        2pz      102 -  103
  150     C        2px      104 +  105
  151     C        2pz      108 -  109
  152     C        2px      110 +  111
  153     C        2pz      114 -  115
  154     C        3d0      120 -  121
  155     C        3d1+     122 +  123
  156     C        3d2+     124 -  125
  157     C        3d0      130 -  131
  158     C        3d1+     132 +  133
  159     C        3d2+     134 -  135
  160     C        2px      141
  161     C        2px      144
  162     C        2px      147
  163     C        2px      150
  164     C        3d1+     156
  165     C        3d1+     161
  166     N        2px      168
  167     N        2px      171
  168     N        2px      174
  169     N        2px      177
  170     N        3d1+     183
  171     N        3d1+     188
  172     O        1s       190 -  191
  173     O        1s       192 -  193
  174     O        1s       194 -  195
  175     O        1s       196 -  197
  176     O        1s       198 -  199
  177     O        2px      200 +  201
  178     O        2pz      204 -  205
  179     O        2px      206 +  207
  180     O        2pz      210 -  211
  181     O        2px      212 +  213
  182     O        2pz      216 -  217
  183     O        2px      218 +  219
  184     O        2pz      222 -  223
  185     O        3d0      228 -  229
  186     O        3d1+     230 +  231
  187     O        3d2+     232 -  233
  188     O        3d0      238 -  239
  189     O        3d1+     240 +  241
  190     O        3d2+     242 -  243
  191     H        1s       244 -  245
  192     H        1s       246 -  247
  193     H        1s       248 -  249
  194     H        2px      250 +  251
  195     H        2pz      254 -  255
  196     H        2px      256 +  257
  197     H        2pz      260 -  261
  198     H        1s       262 -  263
  199     H        1s       264 -  265
  200     H        1s       266 -  267
  201     H        2px      268 +  269
  202     H        2pz      272 -  273
  203     H        2px      274 +  275
  204     H        2pz      278 -  279
  205     H        2px      283
  206     H        2px      286


  Symmetry  B2 ( 3)

  207     C        2py        7
  208     C        2py       10
  209     C        2py       13
  210     C        2py       16
  211     C        3d1-      19
  212     C        3d1-      24
  213     C        2py       40 +   41
  214     C        2py       46 +   47
  215     C        2py       52 +   53
  216     C        2py       58 +   59
  217     C        3d2-      62 -   63
  218     C        3d1-      64 +   65
  219     C        3d2-      72 -   73
  220     C        3d1-      74 +   75
  221     C        2py       94 +   95
  222     C        2py      100 +  101
  223     C        2py      106 +  107
  224     C        2py      112 +  113
  225     C        3d2-     116 -  117
  226     C        3d1-     118 +  119
  227     C        3d2-     126 -  127
  228     C        3d1-     128 +  129
  229     C        2py      142
  230     C        2py      145
  231     C        2py      148
  232     C        2py      151
  233     C        3d1-     154
  234     C        3d1-     159
  235     N        2py      169
  236     N        2py      172
  237     N        2py      175
  238     N        2py      178
  239     N        3d1-     181
  240     N        3d1-     186
  241     O        2py      202 +  203
  242     O        2py      208 +  209
  243     O        2py      214 +  215
  244     O        2py      220 +  221
  245     O        3d2-     224 -  225
  246     O        3d1-     226 +  227
  247     O        3d2-     234 -  235
  248     O        3d1-     236 +  237
  249     H        2py      252 +  253
  250     H        2py      258 +  259
  251     H        2py      270 +  271
  252     H        2py      276 +  277
  253     H        2py      284
  254     H        2py      287


  Symmetry  A2 ( 4)

  255     C        3d2-      18
  256     C        3d2-      23
  257     C        2py       40 -   41
  258     C        2py       46 -   47
  259     C        2py       52 -   53
  260     C        2py       58 -   59
  261     C        3d2-      62 +   63
  262     C        3d1-      64 -   65
  263     C        3d2-      72 +   73
  264     C        3d1-      74 -   75
  265     C        2py       94 -   95
  266     C        2py      100 -  101
  267     C        2py      106 -  107
  268     C        2py      112 -  113
  269     C        3d2-     116 +  117
  270     C        3d1-     118 -  119
  271     C        3d2-     126 +  127
  272     C        3d1-     128 -  129
  273     C        3d2-     153
  274     C        3d2-     158
  275     N        3d2-     180
  276     N        3d2-     185
  277     O        2py      202 -  203
  278     O        2py      208 -  209
  279     O        2py      214 -  215
  280     O        2py      220 -  221
  281     O        3d2-     224 +  225
  282     O        3d1-     226 -  227
  283     O        3d2-     234 +  235
  284     O        3d1-     236 -  237
  285     H        2py      252 -  253
  286     H        2py      258 -  259
  287     H        2py      270 -  271
  288     H        2py      276 -  277

  Symmetries of electric field:  B1 (2)  B2 (3)  A1 (1)

  Symmetries of magnetic field:  B2 (3)  B1 (2)  A2 (4)


                     .---------------------------------------.
                     | Starting in Integral Section (HERMIT) |
                     `---------------------------------------'



 ***************************************************************************************
 ****************** Output from **INTEGRALS input processing (HERMIT) ******************
 ***************************************************************************************


 - Using defaults, no **INTEGRALS input found

 Default print level:        1

 Calculation of one-electron Hamiltonian integrals.

 Center of mass  (bohr):      0.000000000000      0.000000000000     -0.354199752569
 Operator center (bohr):      0.000000000000      0.000000000000      0.000000000000
 Gauge origin    (bohr):      0.000000000000      0.000000000000      0.000000000000
 Dipole origin   (bohr):      0.000000000000      0.000000000000      0.000000000000


     ************************************************************************
     ************************** Output from HERINT **************************
     ************************************************************************



                      Nuclear contribution to dipole moments
                      --------------------------------------

                 au               Debye          C m (/(10**-30)

      z    -30.58194832       -77.73155422      -259.28455553


  Time used in GABGEN     is       0.12 seconds
  Total CPU  time used in HERMIT:   0.44 seconds
  Total wall time used in HERMIT:   0.44 seconds


                        .----------------------------------.
                        | End of Integral Section (HERMIT) |
                        `----------------------------------'



                   .--------------------------------------------.
                   | Starting in Wave Function Section (SIRIUS) |
                   `--------------------------------------------'


 *** Output from Huckel module :

     Using EWMO model:          F
     Using EHT  model:          T
     Number of Huckel orbitals each symmetry:   24   17    6    3

 Huckel EHT eigenvalues for symmetry :  1
          -20.696981     -15.706037     -11.414963     -11.394549     -11.376733
          -11.362594      -1.749704      -1.558147      -1.202691      -0.944505
           -0.818289      -0.774729      -0.646793      -0.591690      -0.498634
           -0.430348      -0.323011      -0.245688      -0.225402      -0.213717
           -0.205833      -0.178730      -0.166437      -0.160469

 Huckel EHT eigenvalues for symmetry :  2
          -20.699392     -11.396468     -11.377853      -1.385893      -1.203885
           -0.880671      -0.647306      -0.562340      -0.526386      -0.480831
           -0.415184      -0.276814      -0.213318      -0.202801      -0.176240
           -0.165394      -0.163252

 Huckel EHT eigenvalues for symmetry :  3
           -0.799619      -0.673991      -0.467322      -0.384270      -0.281709
           -0.236534

 Huckel EHT eigenvalues for symmetry :  4
           -0.589962      -0.460234      -0.288859

 **********************************************************************
 *SIRIUS* a direct, restricted step, second order MCSCF program       *
 **********************************************************************

 
     Date and time (Linux)  : Mon Feb 10 21:08:00 2020
     Host name              : Lab2-333-NPs                            

 Title lines from ".mol" input file:
      nitrobenzene                                                           
      Generated by the Dalton Input File Plugin for Avogadro                 

 Print level on unit LUPRI =   2 is   0
 Print level on unit LUW4  =   2 is   5

@    MC-SCF optimization.

@    Multi-configurational response calculation.
@              Type: complete active space calculation (CAS).

@    This is a combination run starting with
@              a restricted, closed shell Hartree-Fock calculation
@              an MP2 calculation

 Fock matrices are calculated directly without use of integrals on disk.

 Initial molecular orbitals are obtained according to
 ".MOSTART EHT   " input option

     Wave function specification
     ============================
@    Wave function type        --- MC-SCF ---
@    Number of closed shell electrons          54
@    Number of electrons in active shells      10
@    Total charge of the molecule               0

@    Spin multiplicity and 2 M_S                1         0
@    Total number of symmetries                 4 (point group: C2v)
@    Reference state symmetry                   1 (irrep name : A1 )

     Orbital specifications
     ======================
@    Abelian symmetry species          All |    1    2    3    4
@                                          |  A1   B1   B2   A2 
                                       --- |  ---  ---  ---  ---
@    Inactive orbitals                  27 |   15   10    2    0
@    Active orbitals                     7 |    1    1    2    3
@    Secondary orbitals                254 |   99   80   44   31
@    Total number of orbitals          288 |  115   91   48   34
@    Number of basis functions         288 |  115   91   48   34

      ** Automatic occupation of RHF orbitals **

      -- Initial occupation of symmetries is determined from extended Huckel guess.           
      -- Initial occupation of symmetries is :
@    Occupied SCF orbitals              32 |   16   11    3    2

     Optimization information
     ========================
@    Number of determinants                 115
@    Number of orbital rotations           2762
     ------------------------------------------
@    Total number of variables             2877

     Maximum number of macro iterations      25
     Maximum number of micro iterations     600
     Threshold for MCSCF gradient      1.00D-05
     Number of initial trial vectors          1
     Number of initial CI iterations          3
     Number of simultaneous trial vectors     1

@    This calculation converges to the lowest state for the specified symmetry and spin species.

     Maximum number of NEO/NR iterations  24

    INFORMATION: Switched to "new" integral transformation (from 1988 ;-) )
    because more than 255 basis functions.


 ***********************************************
 ***** DIIS acceleration of SCF iterations *****
 ***********************************************

 C1-DIIS algorithm; max error vectors =    8

 Automatic occupation of symmetries with  64 electrons.

 Iter     Total energy    Error norm  Delta(E)    SCF occupation
 -----------------------------------------------------------------------------
   1  Screening settings (-IFTHRS, JTDIIS, DIFDEN, times)   -8    1    T  2.85D+01  2.85D+01
@  1  -432.228544467       6.50D+00  -4.32D+02    16  11   3   2
      Virial theorem: -V/T =      1.998534
@    MULPOP   C       0.36; C   _1  0.26; C   _2  0.26; C   _1  0.24; C   _2  0.24; C       0.37; N       1.29; O   _1 -1.03; O   _2 -1.03; H   _1 -0.20; 
@             H   _2 -0.20; H   _1 -0.18; H   _2 -0.18; H      -0.19; 
   1  Level shift: doubly occupied orbital energies shifted by -2.00D-01
 -----------------------------------------------------------------------------
   2  Screening settings (-IFTHRS, JTDIIS, DIFDEN, times)   -8    2    T  2.83D+01  2.83D+01
@  2  -433.821997718       2.98D+00  -1.59D+00    16  11   3   2
      Virial theorem: -V/T =      2.001464
@    MULPOP   C       1.04; C   _1  0.30; C   _2  0.30; C   _1  0.38; C   _2  0.38; C       0.31; N       0.29; O   _1 -0.51; O   _2 -0.51; H   _1 -0.40; 
@             H   _2 -0.40; H   _1 -0.39; H   _2 -0.39; H      -0.40; 
   2  Level shift: doubly occupied orbital energies shifted by -1.00D-01
 -----------------------------------------------------------------------------
   3  Screening settings (-IFTHRS, JTDIIS, DIFDEN, times)   -8    3    T  2.82D+01  2.82D+01
@  3  -434.202860794       7.28D-01  -3.81D-01    16  11   3   2
      Virial theorem: -V/T =      2.000773
@    MULPOP   C       1.79; C   _1  0.20; C   _2  0.20; C   _1  0.44; C   _2  0.44; C       0.28; N       0.65; O   _1 -0.90; O   _2 -0.90; H   _1 -0.45; 
@             H   _2 -0.45; H   _1 -0.44; H   _2 -0.44; H      -0.44; 
   3  Level shift: doubly occupied orbital energies shifted by -2.50D-02
 -----------------------------------------------------------------------------
   4  Screening settings (-IFTHRS, JTDIIS, DIFDEN, times)   -8    4    T  2.82D+01  2.82D+01
@  4  -434.229263644       1.90D-01  -2.64D-02    16  11   3   2
      Virial theorem: -V/T =      2.002621
@    MULPOP   C       1.89; C   _1  0.15; C   _2  0.15; C   _1  0.51; C   _2  0.51; C       0.29; N       0.49; O   _1 -0.87; O   _2 -0.87; H   _1 -0.45; 
@             H   _2 -0.45; H   _1 -0.45; H   _2 -0.45; H      -0.46; 
   4  Level shift: doubly occupied orbital energies shifted by -1.25D-02
 -----------------------------------------------------------------------------
   5  Screening settings (-IFTHRS, JTDIIS, DIFDEN, times)  -10    5    F  2.88D+01  2.88D+01
@  5  -434.232042313       5.59D-02  -2.78D-03    16  11   3   2
      Virial theorem: -V/T =      2.002036
@    MULPOP   C       1.92; C   _1  0.13; C   _2  0.13; C   _1  0.50; C   _2  0.50; C       0.27; N       0.48; O   _1 -0.87; O   _2 -0.87; H   _1 -0.44; 
@             H   _2 -0.44; H   _1 -0.44; H   _2 -0.44; H      -0.44; 
 -----------------------------------------------------------------------------
   6  Screening settings (-IFTHRS, JTDIIS, DIFDEN, times)  -10    6    T  2.84D+01  2.84D+01
@  6  -434.232383089       1.56D-02  -3.41D-04    16  11   3   2
      Virial theorem: -V/T =      2.001955
@    MULPOP   C       1.94; C   _1  0.12; C   _2  0.12; C   _1  0.51; C   _2  0.51; C       0.27; N       0.46; O   _1 -0.87; O   _2 -0.87; H   _1 -0.43; 
@             H   _2 -0.43; H   _1 -0.44; H   _2 -0.44; H      -0.44; 
 -----------------------------------------------------------------------------
   7  Screening settings (-IFTHRS, JTDIIS, DIFDEN, times)  -13    7    F  2.88D+01  2.88D+01
@  7  -434.232415768       6.16D-03  -3.27D-05    16  11   3   2
      Virial theorem: -V/T =      2.001992
@    MULPOP   C       1.95; C   _1  0.12; C   _2  0.12; C   _1  0.51; C   _2  0.51; C       0.27; N       0.46; O   _1 -0.87; O   _2 -0.87; H   _1 -0.43; 
@             H   _2 -0.43; H   _1 -0.44; H   _2 -0.44; H      -0.44; 
 -----------------------------------------------------------------------------
   8  Screening settings (-IFTHRS, JTDIIS, DIFDEN, times)  -13    8    T  2.86D+01  2.86D+01
@  8  -434.232420766       2.12D-03  -5.00D-06    16  11   3   2
      Virial theorem: -V/T =      2.001980
@    MULPOP   C       1.95; C   _1  0.12; C   _2  0.12; C   _1  0.50; C   _2  0.50; C       0.27; N       0.46; O   _1 -0.87; O   _2 -0.87; H   _1 -0.43; 
@             H   _2 -0.43; H   _1 -0.44; H   _2 -0.44; H      -0.44; 
 -----------------------------------------------------------------------------
   9  Screening settings (-IFTHRS, JTDIIS, DIFDEN, times)  -13    9    T  2.84D+01  2.84D+01
@  9  -434.232421338       6.89D-04  -5.73D-07    16  11   3   2
      Virial theorem: -V/T =      2.001977
@    MULPOP   C       1.95; C   _1  0.12; C   _2  0.12; C   _1  0.50; C   _2  0.50; C       0.27; N       0.46; O   _1 -0.87; O   _2 -0.87; H   _1 -0.43; 
@             H   _2 -0.43; H   _1 -0.44; H   _2 -0.44; H      -0.44; 
 -----------------------------------------------------------------------------
  10  Screening settings (-IFTHRS, JTDIIS, DIFDEN, times)  -13   10    T  2.85D+01  2.85D+01
@ 10  -434.232421402       2.40D-04  -6.39D-08    16  11   3   2
      Virial theorem: -V/T =      2.001978
@    MULPOP   C       1.95; C   _1  0.12; C   _2  0.12; C   _1  0.50; C   _2  0.50; C       0.27; N       0.46; O   _1 -0.87; O   _2 -0.87; H   _1 -0.43; 
@             H   _2 -0.43; H   _1 -0.44; H   _2 -0.44; H      -0.44; 
 -----------------------------------------------------------------------------
  11  Screening settings (-IFTHRS, JTDIIS, DIFDEN, times)  -13   11    T  2.85D+01  2.86D+01
@ 11  -434.232421414       9.56D-05  -1.18D-08    16  11   3   2
      Virial theorem: -V/T =      2.001978
@    MULPOP   C       1.95; C   _1  0.12; C   _2  0.12; C   _1  0.50; C   _2  0.50; C       0.27; N       0.46; O   _1 -0.87; O   _2 -0.87; H   _1 -0.43; 
@             H   _2 -0.43; H   _1 -0.44; H   _2 -0.44; H      -0.44; 
 -----------------------------------------------------------------------------
  12  Screening settings (-IFTHRS, JTDIIS, DIFDEN, times)  -13   12    T  2.86D+01  2.87D+01
@ 12  -434.232421416       4.19D-05  -2.39D-09    16  11   3   2
      Virial theorem: -V/T =      2.001978
@    MULPOP   C       1.95; C   _1  0.12; C   _2  0.12; C   _1  0.50; C   _2  0.50; C       0.27; N       0.46; O   _1 -0.87; O   _2 -0.87; H   _1 -0.43; 
@             H   _2 -0.43; H   _1 -0.44; H   _2 -0.44; H      -0.44; 
 -----------------------------------------------------------------------------
  13  Screening settings (-IFTHRS, JTDIIS, DIFDEN, times)  -13   13    T  2.85D+01  2.85D+01
@ 13  -434.232421417       2.26D-05  -3.82D-10    16  11   3   2
      Virial theorem: -V/T =      2.001978
@    MULPOP   C       1.95; C   _1  0.12; C   _2  0.12; C   _1  0.50; C   _2  0.50; C       0.27; N       0.46; O   _1 -0.87; O   _2 -0.87; H   _1 -0.43; 
@             H   _2 -0.43; H   _1 -0.44; H   _2 -0.44; H      -0.44; 
 -----------------------------------------------------------------------------
  14  Screening settings (-IFTHRS, JTDIIS, DIFDEN, times)  -13   14    T  2.82D+01  2.82D+01
@ 14  -434.232421417       7.84D-06  -1.70D-10    16  11   3   2
      Virial theorem: -V/T =      2.001978
@    MULPOP   C       1.95; C   _1  0.12; C   _2  0.12; C   _1  0.50; C   _2  0.50; C       0.27; N       0.46; O   _1 -0.87; O   _2 -0.87; H   _1 -0.43; 
@             H   _2 -0.43; H   _1 -0.44; H   _2 -0.44; H      -0.44; 
 -----------------------------------------------------------------------------
  15  Screening settings (-IFTHRS, JTDIIS, DIFDEN, times)  -13   15    T  2.84D+01  2.84D+01
@ 15  -434.232421417       2.88D-06  -2.10D-11    16  11   3   2
      Virial theorem: -V/T =      2.001978
@    MULPOP   C       1.95; C   _1  0.12; C   _2  0.12; C   _1  0.50; C   _2  0.50; C       0.27; N       0.46; O   _1 -0.87; O   _2 -0.87; H   _1 -0.43; 
@             H   _2 -0.43; H   _1 -0.44; H   _2 -0.44; H      -0.44; 
 -----------------------------------------------------------------------------
  16  Screening settings (-IFTHRS, JTDIIS, DIFDEN, times)  -13   16    T  2.81D+01  2.81D+01
@ 16  -434.232421417       1.29D-06   7.05D-12    16  11   3   2
      Virial theorem: -V/T =      2.001978
@    MULPOP   C       1.95; C   _1  0.12; C   _2  0.12; C   _1  0.50; C   _2  0.50; C       0.27; N       0.46; O   _1 -0.87; O   _2 -0.87; H   _1 -0.43; 
@             H   _2 -0.43; H   _1 -0.44; H   _2 -0.44; H      -0.44; 
 -----------------------------------------------------------------------------
  17  Screening settings (-IFTHRS, JTDIIS, DIFDEN, times)  -13   17    T  2.81D+01  2.81D+01
@ 17  -434.232421417       5.18D-07  -6.25D-12    16  11   3   2

@ *** DIIS converged in  17 iterations !
@     Converged SCF energy, gradient:   -434.232421417034    5.18D-07
    - total time used in SIRFCK :              0.00 seconds

 --- Writing SIRIFC interface file

 CPU and wall time for SCF :     483.828     484.074


 ----- Output from SIRIUS MP2 module -----

 Reference: H.J.Aa.Jensen, P.Jorgensen, H.Agren, and J.Olsen,
            J. Chem. Phys. 88, 3834 (1988); 89, 5354 (1988)

 Checking that the closed shell orbitals are canonical Hartree-Fock orbitals

    Number of electrons  :   64
    Closed shell orbitals:   16   11    3    2

 Generating Fock matrix

 Hartree-Fock electronic energy:        -845.480735004313
 Hartree-Fock total      energy:        -434.232421417020

 Hartree-Fock orbital energies, symmetry 1 ( A1 ),   16 occupied SCF orbitals

       -20.60612224   -15.85816906   -11.32615735   -11.28848980   -11.28505693
       -11.27728806    -1.61143067    -1.20689935    -1.10025575    -0.96646902
        -0.83241646    -0.78156937    -0.71389195    -0.65509656    -0.56074816
        -0.50194718     0.02561581     0.04364078     0.06203639     0.10405141
         0.13027389     0.13426697     0.14977562     0.15651653     0.17293067
         0.18184967     0.21275750     0.25769773     0.28866226     0.29855982
         0.31519469     0.33558301     0.34828869     0.35172619     0.37056769
         0.39621740     0.41215004     0.42673045     0.45507956     0.48355244
         0.52082908     0.55935211     0.57689480     0.60084015     0.63072721
         0.64911176     0.65712830     0.67449605     0.72600835     0.73713944
         0.74119609     0.83508044     0.88646954     0.93628362     0.95329267
         0.96511829     1.00430735     1.06647258     1.07874860     1.13428753
         1.26938292     1.35764583     1.37478785     1.45177938     1.49439122
         1.50759941     1.54346258     1.56611651     1.57612561     1.60797290
         1.67708793     1.71280725     1.74458592     1.77962455     1.87061728
         1.93593417     1.95048858     2.00642424     2.02193076     2.13747598
         2.18917569     2.23619796     2.30033379     2.37345461     2.41822038
         2.44258560     2.54212159     2.68855432     2.76054385     2.81978333
         2.88400825     2.94838118     3.03512599     3.14219841     3.26876113
         3.41475374     3.74891322     4.02216942     4.07412898     4.22787657
        19.80456594    20.33038936    20.45129614    20.61658914    23.34963958
        23.40993412    23.42591637    23.81632371    23.91284057    24.11959050
        27.06284811    31.28230043    35.77059264    39.71029816    39.77132238

 Hartree-Fock orbital energies, symmetry 2 ( B1 ),   11 occupied SCF orbitals

       -20.60618140   -11.28852748   -11.27739116    -1.38906105    -1.05935094
        -0.87131005    -0.72425353    -0.65997610    -0.62920252    -0.53572002
        -0.48124679     0.03528391     0.05984431     0.12963832     0.13236565
         0.15257636     0.17459216     0.18297159     0.21395201     0.26189054
         0.28846838     0.31259196     0.33373243     0.35954338     0.36748070
         0.39286696     0.42076142     0.43706649     0.45739857     0.56539165
         0.57395802     0.58613650     0.64662237     0.66272525     0.67674859
         0.69585018     0.75555263     0.76158889     0.82685329     0.84351072
         0.86175340     0.92086571     1.01711624     1.14277241     1.20390908
         1.24484646     1.33364236     1.39300320     1.40707296     1.48337752
         1.57313513     1.58558074     1.61973509     1.63613424     1.69671797
         1.75611238     1.76764110     1.78833073     1.88381125     1.92731268
         2.00596055     2.08224573     2.23142070     2.26434986     2.34050967
         2.34516623     2.38480873     2.51696296     2.58073388     2.76433625
         2.89536078     2.93840996     3.10622675     3.29585749     3.34444489
         3.41148513     3.74948740     3.84272411     4.21293887    20.29317933
        20.47318122    22.89465949    23.33419532    23.38134678    23.93600569
        24.11720966    24.30439378    31.43464628    35.58157391    39.65041365
        40.08189628

 Hartree-Fock orbital energies, symmetry 3 ( B2 ),    3 occupied SCF orbitals

        -0.71656798    -0.54092156    -0.38205349     0.03274278     0.10528293
         0.12507092     0.13761423     0.18302337     0.19132432     0.24745287
         0.31621816     0.34009181     0.37566949     0.44376698     0.53195907
         0.58523892     0.64135463     0.71194523     0.78795004     0.84317699
         0.86840750     0.91874839     0.92354071     0.98633174     1.14158183
         1.26777876     1.28682996     1.46947918     1.47478856     1.61152321
         1.67111165     1.70440734     1.83369580     1.89786315     1.98386281
         2.07916102     2.17331405     2.29522949     2.54070870     2.67480743
         3.66200087     3.80806668    22.53950326    22.68785876    22.82409924
        23.02265476    30.55814393    39.42444476

 Hartree-Fock orbital energies, symmetry 4 ( A2 ),    2 occupied SCF orbitals

        -0.44731937    -0.37294238     0.08301910     0.13009729     0.18482425
         0.29883731     0.41136417     0.48906970     0.54404542     0.65612540
         0.73369004     0.89322502     0.89757661     0.94044888     1.04131266
         1.08288012     1.21224679     1.25198072     1.34357260     1.48116899
         1.66837209     1.68583933     1.85815721     1.98423767     2.11306777
         2.20583067     2.35034546     2.47630291     2.60205138     3.66626544
         3.98660373    22.68865093    22.85500538    39.49627164

    E(LUMO) :     0.02561581   (in symmetry 1)
  - E(HOMO) :    -0.37294238   (in symmetry 4)
  --------------------------
    gap     :     0.39855819

---> (Re)generating AOTWOINT


     ************************************************************************
     ************************** Output from HERINT **************************
     ************************************************************************


 Threshold for neglecting two-electron integrals:  1.00D-12
 HERMIT - Number of two-electron integrals written:   203044952 ( 23.4% )
 HERMIT - Megabytes written:                           3099.518

  Time used in TWOINT     is      39.38 seconds

 2-el. integral transformation level 5: Total CPU and WALL times (sec)     413.141     414.976

 MP2 move   0.993751 electrons to unoccupied HF orbitals


@   Hartree-Fock total energy   :          -434.2324214170
@   + MP2 contribution          :            -1.7251799358
@   = MP2 second order energy   :          -435.9576013528

 Natural orbital occupation numbers, symmetry 1 (irrep A1 )
 Sum =    32.00678270; RHF =    32.00000000; Difference =     0.00678270

         1.99929034     1.99907567     1.99876147     1.99875645     1.99875169
         1.99874759     1.98699962     1.98414475     1.97947689     1.97232610
         1.96898404     1.96825955     1.96563503     1.96218428     1.95510669
         1.94592918     0.04099470     0.03585279     0.02543060     0.02380552
         0.01924266     0.01860795     0.01728213     0.01642852     0.01376034
         0.01271625     0.01181109     0.00982098     0.00853675     0.00783507
         0.00755624     0.00670145     0.00566164     0.00454339     0.00307532
         0.00295169     0.00272594     0.00263049     0.00222371     0.00202184
         0.00184930     0.00166847     0.00160212     0.00131204     0.00120854
         0.00116859     0.00105909     0.00096112     0.00071337     0.00065075
         0.00061107     0.00053822     0.00049752     0.00045682     0.00043980
         0.00041532     0.00040838     0.00038502     0.00037721     0.00035353
         0.00034341     0.00032534     0.00031453     0.00029482     0.00026690
         0.00025848     0.00022481     0.00022373     0.00020424     0.00019539
         0.00018653     0.00018551     0.00017628     0.00017120     0.00016783
         0.00016176     0.00015554     0.00015082     0.00014023     0.00013291
         0.00012680     0.00012451     0.00012190     0.00011188     0.00010354
         0.00009398     0.00007750     0.00007085     0.00006073     0.00005672
         0.00005223     0.00004129     0.00003419     0.00002764     0.00002161
         0.00001683     0.00001459     0.00001190     0.00001122     0.00000935
         0.00000867     0.00000835     0.00000705     0.00000318     0.00000299
         0.00000195     0.00000111     0.00000056     0.00000035     0.00000019
         0.00000015    -0.00000001    -0.00000010    -0.00000050    -0.00004344

 Natural orbital occupation numbers, symmetry 2 (irrep B1 )
 Sum =    21.95465534; RHF =    22.00000000; Difference =    -0.04534466

         1.99929021     1.99875724     1.99875096     1.98397245     1.98003733
         1.97274690     1.96243411     1.96047636     1.95488099     1.95433706
         1.94679640     0.03909629     0.02537266     0.02377158     0.01927570
         0.01658759     0.01592591     0.01521765     0.01131480     0.01043773
         0.00909272     0.00761003     0.00579910     0.00536854     0.00517814
         0.00377340     0.00311876     0.00276645     0.00241127     0.00212666
         0.00173532     0.00162124     0.00152277     0.00131619     0.00119052
         0.00102870     0.00097536     0.00069436     0.00063936     0.00056459
         0.00048595     0.00043959     0.00042182     0.00037215     0.00035295
         0.00033491     0.00029941     0.00028924     0.00026864     0.00026033
         0.00023908     0.00021083     0.00019775     0.00018800     0.00018259
         0.00017708     0.00016949     0.00016922     0.00016005     0.00015404
         0.00014295     0.00013357     0.00012882     0.00012550     0.00011837
         0.00011293     0.00009414     0.00009011     0.00006964     0.00005139
         0.00004501     0.00003643     0.00003013     0.00002883     0.00002221
         0.00001538     0.00001391     0.00001130     0.00001062     0.00000829
         0.00000467     0.00000373     0.00000173     0.00000123     0.00000061
         0.00000029     0.00000013    -0.00000001    -0.00000023    -0.00000068
        -0.00003212

 Natural orbital occupation numbers, symmetry 3 (irrep B2 )
 Sum =     6.07781242; RHF =     6.00000000; Difference =     0.07781242

         1.95023055     1.94427676     1.90927572     0.10193478     0.06750744
         0.02959987     0.01046760     0.01027964     0.00870188     0.00800752
         0.00620652     0.00530899     0.00449285     0.00391614     0.00342256
         0.00305078     0.00152781     0.00143387     0.00098732     0.00088080
         0.00085931     0.00065923     0.00060787     0.00049720     0.00047062
         0.00041852     0.00033431     0.00028890     0.00025186     0.00023062
         0.00019888     0.00019580     0.00018977     0.00017786     0.00015227
         0.00013072     0.00012173     0.00011042     0.00010014     0.00008291
         0.00007943     0.00006310     0.00003615     0.00002046     0.00001044
         0.00000825     0.00000498     0.00000127

 Natural orbital occupation numbers, symmetry 4 (irrep A2 )
 Sum =     3.96074954; RHF =     4.00000000; Difference =    -0.03925046

         1.91630382     1.90846541     0.06641985     0.01460652     0.01037617
         0.00932597     0.00788825     0.00569986     0.00502039     0.00404687
         0.00357990     0.00153248     0.00122201     0.00093377     0.00077657
         0.00072675     0.00066901     0.00056172     0.00040537     0.00036957
         0.00033978     0.00029284     0.00021669     0.00019689     0.00016502
         0.00013205     0.00011680     0.00010428     0.00009288     0.00006937
         0.00004981     0.00002048     0.00001737     0.00000505

 Time used for MP2 natural orbitals :     445.359 CPU seconds,     447.219 wall seconds.

 CPU and wall time for MP2 :     445.359     447.219


        SIRIUS MCSCF optimization (SIROPT)
 ================================================


 Fock matrix screening setting for SIRCNO: IFTHRS =    9


 ----- Output from SIRIUS CI module (CICTL) -----




 2-el. integral transformation level 0: Total CPU and WALL times (sec)     100.562     100.675


 --- SIRCI.CIST1: plus combination of all degenerate
                 configurations is used as start vectors.


 (CIST1) 8 lowest diagonal elements:

 Element no. Config.no.    Active energy      Total energy

         1 :         67    -17.3222680151   -434.2139635818
         2 :         69    -17.0309510819   -433.9226466487
         3 :         81    -17.0309510819   -433.9226466487
         4 :         68    -16.9704977886   -433.8621933553
         5 :         74    -16.9704977886   -433.8621933553
         6 :         78    -16.8803321090   -433.7720276757
         7 :         96    -16.8803321090   -433.7720276757
         8 :         71    -16.8355391935   -433.7272347603


 Convergence threshold for CI optimization :     0.00000500



 *** Reached maximum number of CI iterations:    3
              1 CI roots are not converged.


@ Final CI energies and residuals in symmetry 1 (irrep A1 )
@    1     -434.263385301720518       4.68D-03

   --- OUTPUT FROM SIRCNO     Keyword = FD+NO 


 Occupations of CAS natural orbitals:

 Symmetry  1 ( irrep A1  in C2v )

   1.999847385

 Symmetry  2 ( irrep B1  in C2v )

   1.999839722

 Symmetry  3 ( irrep B2  in C2v )

   1.989393079   0.090648777

 Symmetry  4 ( irrep A2  in C2v )

   1.912386594   1.968780236   0.039104207


 --- MACRO ITERATION  1 ---
 --------------------------

 2-el. integral transformation level 3: Total CPU and WALL times (sec)     101.094     101.154

 Fock matrix screening setting for this macro iteration: 10^( -9)

 Total MCSCF energy       :          -434.263385301752578  (MACRO    1)

 - Nuclear repulsion      :           411.248313587292671
 - Inactive energy        :          -828.140009157742384
 - Active energy          :           -17.371689731302837

 Norm of total gradient   :             0.522538378928
 -    of CI gradient      :             0.009354608838
 -    of orbital gradient :             0.522454637979
      Virial theorem: -V/T =      2.000846
@    MULPOP   C       1.61; C   _1  0.26; C   _2  0.26; C   _1  0.48; C   _2  0.48; C       0.33; N       0.31; O   _1 -0.67; O   _2 -0.67; H   _1 -0.48; 
@             H   _2 -0.48; H   _1 -0.47; H   _2 -0.47; H      -0.47; 

 Residual norm when dim(red L) =   4
 NEO root     CSF        orbital          total
    1     0.07426377     0.02873159     0.07962796 converged

 (NEONEX) NEO vector is converged.

   --- OUTPUT FROM SIRCNO     Keyword = FD+NO 


 Occupations of CAS natural orbitals:

 Symmetry  1 ( irrep A1  in C2v )

   1.999847385

 Symmetry  2 ( irrep B1  in C2v )

   1.999839722

 Symmetry  3 ( irrep B2  in C2v )

   1.989393079   0.090648777

 Symmetry  4 ( irrep A2  in C2v )

   1.912386594   1.968780236   0.039104207


 --- MACRO ITERATION  2 ---
 --------------------------

 2-el. integral transformation level 3: Total CPU and WALL times (sec)     101.547     101.639

 Fock matrix screening setting for this macro iteration: 10^( -9)

 Total MCSCF energy       :          -434.282978036933230  (MACRO    2)

 - Nuclear repulsion      :           411.248313587292671
 - Inactive energy        :          -828.124269124090915
 - Active energy          :           -17.407022500134996

 Norm of total gradient   :             0.063358214826
 -    of CI gradient      :             0.056220443912
 -    of orbital gradient :             0.029215151416
      Virial theorem: -V/T =      2.001803
@    MULPOP   C       2.01; C   _1  0.10; C   _2  0.10; C   _1  0.49; C   _2  0.49; C       0.28; N       0.38; O   _1 -0.83; O   _2 -0.83; H   _1 -0.44; 
@             H   _2 -0.44; H   _1 -0.44; H   _2 -0.44; H      -0.44; 

 (SIRNEO) iteration (  2,  7)
 Micro iteration termination criterion met, EVAL(ISTATE+1) = -2.91D-04

   --- OUTPUT FROM SIRCNO     Keyword = FD+NO 


 Occupations of CAS natural orbitals:

 Symmetry  1 ( irrep A1  in C2v )

   1.999744453

 Symmetry  2 ( irrep B1  in C2v )

   1.998649913

 Symmetry  3 ( irrep B2  in C2v )

   1.989474215   0.133663675

 Symmetry  4 ( irrep A2  in C2v )

   1.868452671   1.964025965   0.045989108


 --- MACRO ITERATION  3 ---
 --------------------------

 2-el. integral transformation level 3: Total CPU and WALL times (sec)     101.969     102.040

 Fock matrix screening setting for this macro iteration: 10^( -9)

 Total MCSCF energy       :          -434.285240304758645  (MACRO    3)

 - Nuclear repulsion      :           411.248313587292671
 - Inactive energy        :          -828.625943522353282
 - Active energy          :           -16.907610369698055

 Norm of total gradient   :             0.025796293210
 -    of CI gradient      :             0.012935225792
 -    of orbital gradient :             0.022318796497
      Virial theorem: -V/T =      2.001676
@    MULPOP   C       2.00; C   _1  0.11; C   _2  0.11; C   _1  0.48; C   _2  0.48; C       0.28; N       0.35; O   _1 -0.80; O   _2 -0.80; H   _1 -0.44; 
@             H   _2 -0.44; H   _1 -0.44; H   _2 -0.44; H      -0.44; 

 (SIRNEO) iteration (  3,  8)
 Micro iteration termination criterion met, EVAL(ISTATE+1) = -9.96D-05

   --- OUTPUT FROM SIRCNO     Keyword = FD+NO 


 Occupations of CAS natural orbitals:

 Symmetry  1 ( irrep A1  in C2v )

   1.999778822

 Symmetry  2 ( irrep B1  in C2v )

   1.999089193

 Symmetry  3 ( irrep B2  in C2v )

   1.989556992   0.129966412

 Symmetry  4 ( irrep A2  in C2v )

   1.871700070   1.964649728   0.045258783


 --- MACRO ITERATION  4 ---
 --------------------------

 2-el. integral transformation level 3: Total CPU and WALL times (sec)     101.609     101.667

 Fock matrix screening setting for this macro iteration: 10^( -9)

 Total MCSCF energy       :          -434.285611421657279  (MACRO    4)

 - Nuclear repulsion      :           411.248313587292671
 - Inactive energy        :          -827.625891542303407
 - Active energy          :           -17.908033466646533

 Norm of total gradient   :             0.012546035222
 -    of CI gradient      :             0.009541221916
 -    of orbital gradient :             0.008146660919
      Virial theorem: -V/T =      2.001697
@    MULPOP   C       2.01; C   _1  0.10; C   _2  0.10; C   _1  0.49; C   _2  0.49; C       0.28; N       0.36; O   _1 -0.80; O   _2 -0.80; H   _1 -0.44; 
@             H   _2 -0.44; H   _1 -0.44; H   _2 -0.44; H      -0.45; 

 Residual norm when dim(red L) =  15
 NEO root     CSF        orbital          total
    1     0.00093183     0.00035046     0.00099556 converged

 (NEONEX) NEO vector is converged.

   --- OUTPUT FROM SIRCNO     Keyword = FD+NO 


 Occupations of CAS natural orbitals:

 Symmetry  1 ( irrep A1  in C2v )

   1.999401197

 Symmetry  2 ( irrep B1  in C2v )

   1.999111578

 Symmetry  3 ( irrep B2  in C2v )

   1.989188262   0.131805070

 Symmetry  4 ( irrep A2  in C2v )

   1.870329450   1.964128583   0.046035861


 --- MACRO ITERATION  5 ---
 --------------------------

 2-el. integral transformation level 3: Total CPU and WALL times (sec)     102.297     102.362

 Fock matrix screening setting for this macro iteration: 10^( -9)

 Total MCSCF energy       :          -434.286016527453910  (MACRO    5)

 - Nuclear repulsion      :           411.248313587292671
 - Inactive energy        :          -827.468001925344879
 - Active energy          :           -18.066328189401720

 Norm of total gradient   :             0.008127551184
 -    of CI gradient      :             0.007881689592
 -    of orbital gradient :             0.001983949953
      Virial theorem: -V/T =      2.001687
@    MULPOP   C       2.00; C   _1  0.11; C   _2  0.11; C   _1  0.48; C   _2  0.48; C       0.28; N       0.36; O   _1 -0.80; O   _2 -0.80; H   _1 -0.44; 
@             H   _2 -0.44; H   _1 -0.44; H   _2 -0.44; H      -0.44; 

 Residual norm when dim(red L) =  13
 NEO root     CSF        orbital          total
    1     0.00102783     0.00039717     0.00110190 converged

 (NEONEX) NEO vector is converged.

   --- OUTPUT FROM SIRCNO     Keyword = FD+NO 


 Occupations of CAS natural orbitals:

 Symmetry  1 ( irrep A1  in C2v )

   1.998235966

 Symmetry  2 ( irrep B1  in C2v )

   1.999417566

 Symmetry  3 ( irrep B2  in C2v )

   1.989161444   0.130813684

 Symmetry  4 ( irrep A2  in C2v )

   1.872141099   1.964324864   0.045905376


 --- MACRO ITERATION  6 ---
 --------------------------

 2-el. integral transformation level 3: Total CPU and WALL times (sec)     101.734     101.834

 Fock matrix screening setting for this macro iteration: 10^( -9)

 Total MCSCF energy       :          -434.286253974898500  (MACRO    6)

 - Nuclear repulsion      :           411.248313587292671
 - Inactive energy        :          -827.718409072283066
 - Active energy          :           -17.816158489908112

 Norm of total gradient   :             0.013631828648
 -    of CI gradient      :             0.013076981061
 -    of orbital gradient :             0.003849586811
      Virial theorem: -V/T =      2.001685
@    MULPOP   C       2.00; C   _1  0.11; C   _2  0.11; C   _1  0.48; C   _2  0.48; C       0.28; N       0.36; O   _1 -0.80; O   _2 -0.80; H   _1 -0.44; 
@             H   _2 -0.44; H   _1 -0.44; H   _2 -0.44; H      -0.44; 

 Residual norm when dim(red L) =   9
 NEO root     CSF        orbital          total
    1     0.00118668     0.00067672     0.00136607 converged

 (NEONEX) NEO vector is converged.

   --- OUTPUT FROM SIRCNO     Keyword = FD+NO 


 Occupations of CAS natural orbitals:

 Symmetry  1 ( irrep A1  in C2v )

   1.998630762

 Symmetry  2 ( irrep B1  in C2v )

   1.999469601

 Symmetry  3 ( irrep B2  in C2v )

   1.989194612   0.129787783

 Symmetry  4 ( irrep A2  in C2v )

   1.872724202   1.964394739   0.045798300


 --- MACRO ITERATION  7 ---
 --------------------------

 2-el. integral transformation level 3: Total CPU and WALL times (sec)     102.453     102.518

 Fock matrix screening setting for this macro iteration: 10^( -9)

 Total MCSCF energy       :          -434.286310989267406  (MACRO    7)

 - Nuclear repulsion      :           411.248313587292671
 - Inactive energy        :          -827.600281839345143
 - Active energy          :           -17.934342737214923

 Norm of total gradient   :             0.001813877896
 -    of CI gradient      :             0.001663287735
 -    of orbital gradient :             0.000723620711
      Virial theorem: -V/T =      2.001689
@    MULPOP   C       2.00; C   _1  0.11; C   _2  0.11; C   _1  0.48; C   _2  0.48; C       0.28; N       0.36; O   _1 -0.80; O   _2 -0.80; H   _1 -0.44; 
@             H   _2 -0.44; H   _1 -0.44; H   _2 -0.44; H      -0.44; 

 Residual norm when dim(red L) =  24
 NEO root     CSF        orbital          total
    1     0.00000522     0.00000428     0.00000675 converged

 (NEONEX) NEO vector is converged.

   --- OUTPUT FROM SIRCNO     Keyword = FD+NO 


 Occupations of CAS natural orbitals:

 Symmetry  1 ( irrep A1  in C2v )

   1.998676214

 Symmetry  2 ( irrep B1  in C2v )

   1.999476220

 Symmetry  3 ( irrep B2  in C2v )

   1.989165158   0.130477996

 Symmetry  4 ( irrep A2  in C2v )

   1.871985788   1.964269487   0.045949137


 --- MACRO ITERATION  8 ---
 --------------------------

 2-el. integral transformation level 3: Total CPU and WALL times (sec)     103.844     103.920

 Fock matrix screening setting for this macro iteration: 10^( -9)

 Total MCSCF energy       :          -434.286312353150720  (MACRO    8)

 - Nuclear repulsion      :           411.248313587292671
 - Inactive energy        :          -827.588379621390573
 - Active energy          :           -17.946246319052811

 Norm of total gradient   :             0.000037548875
 -    of CI gradient      :             0.000036257345
 -    of orbital gradient :             0.000009763349
      Virial theorem: -V/T =      2.001688
@    MULPOP   C       2.00; C   _1  0.11; C   _2  0.11; C   _1  0.48; C   _2  0.48; C       0.28; N       0.36; O   _1 -0.80; O   _2 -0.80; H   _1 -0.44; 
@             H   _2 -0.44; H   _1 -0.44; H   _2 -0.44; H      -0.44; 

 Residual norm when dim(red L) =   4
 NEO root     CSF        orbital          total
    1     0.00000335     0.00000572     0.00000662 converged

 (NEONEX) NEO vector is converged.

   --- OUTPUT FROM SIRCNO     Keyword = FD+NO 


 Occupations of CAS natural orbitals:

 Symmetry  1 ( irrep A1  in C2v )

   1.998677654

 Symmetry  2 ( irrep B1  in C2v )

   1.999476151

 Symmetry  3 ( irrep B2  in C2v )

   1.989165369   0.130475725

 Symmetry  4 ( irrep A2  in C2v )

   1.871986670   1.964269695   0.045948735


 --- MACRO ITERATION  9 ---
 --------------------------

 2-el. integral transformation level 3: Total CPU and WALL times (sec)     101.859     101.980

 Fock matrix screening setting for this macro iteration: 10^( -9)

 Total MCSCF energy       :          -434.286312353808569  (MACRO    9)

 - Nuclear repulsion      :           411.248313587292671
 - Inactive energy        :          -827.588105562249211
 - Active energy          :           -17.946520378852004

 Norm of total gradient   :             0.000006622912
 -    of CI gradient      :             0.000003348378
 -    of orbital gradient :             0.000005714134
      Virial theorem: -V/T =      2.001688
@    MULPOP   C       2.00; C   _1  0.11; C   _2  0.11; C   _1  0.48; C   _2  0.48; C       0.28; N       0.36; O   _1 -0.80; O   _2 -0.80; H   _1 -0.44; 
@             H   _2 -0.44; H   _1 -0.44; H   _2 -0.44; H      -0.44; 

 (SIRSTP) Energy difference;
 actual, predicted and ratio:  -0.000000000657849  -0.000000000650528    1.011254
 Close to convergence, ratio set to one.

 *** Optimization control: MCSCF converged ***
     Number of macro iterations used            9
     Number of micro iterations used           73
     Total number of CPU seconds used      3879.19

 CPU and wall time for MCSCF :    3879.188    3882.287


                     .----------------------------------------.
                     | --- SIRIUS OPTIMIZATION STATISTICS --- |
                     `----------------------------------------'


 
     Date and time (Linux)  : Mon Feb 10 22:28:13 2020
     Host name              : Lab2-333-NPs                            


  ITER ITMIC     EMCSCF           GRDNRM        RATIO      STPLNG
 ---------------------------------------------------------------------
    1    3   -434.263385301753   0.5225383789  0.000000   0.1988757487
    2    7   -434.282978036933   0.0633582148  0.999654   0.7429129790
    3    8   -434.285240304759   0.0257962932  0.845687   0.6969804241
    4   13   -434.285611421657   0.0125460352  0.852100   0.7695610528
    5   11   -434.286016527454   0.0081275512  0.808318   0.7333722997
    6    7   -434.286253974899   0.0136318286  0.420589   0.1175960114
    7   22   -434.286310989267   0.0018138779  1.061221   0.0167679629
    8    2   -434.286312353151   0.0000375489  1.011546   0.0002204268
    9    0   -434.286312353809   0.0000066229  1.000000   0.0000000000


  ITER  INDGCM  GCIMAX      GCINRM     INDGOM  GOBMAX      GOBNRM      GRDNRM
 ------------------------------------------------------------------------------
    1     83    0.003563    0.009355   2267    0.066617    0.522455    0.522538
    2     56    0.043497    0.056220   2522    0.004969    0.029215    0.063358
    3      1   -0.011766    0.012935   1872   -0.005155    0.022319    0.025796
    4     26    0.007583    0.009541   2522    0.001497    0.008147    0.012546
    5     26   -0.006510    0.007882   2491   -0.000771    0.001984    0.008128
    6     26    0.011828    0.013077   2491   -0.002626    0.003850    0.013632
    7     26    0.001206    0.001663   2685    0.000192    0.000724    0.001814
    8     26    0.000035    0.000036      2    0.000003    0.000010    0.000038
    9     56   -0.000002    0.000003   2491    0.000002    0.000006    0.000007


  ITER ITMIC NCLIN NOLIN   TIMMAC    TIMITR    TIMMIC    TIMLIN    TIMMIC/ITMIC
 ------------------------------------------------------------------------------

    1     3     0     3    257.89    101.09    125.75     94.69     41.92
    2     7     3     5    381.17    101.55    248.70    217.80     35.53
    3     8     1     8    419.80    101.97    286.61    255.44     35.83
    4    13     3    11    570.22    101.61    437.56    406.50     33.66
    5    11     4     8    504.50    102.30    371.30    340.31     33.75
    6     7     2     6    383.62    101.73    250.83    219.77     35.83
    7    22     8    15    840.70    102.45    707.30    676.39     32.15
[...]

       No.  Residual tot.,    conf., and orb.    Bnorm      Frequency 
      ----------------------------------------------------------------
         1    3.72526D+00  2.54D+00  2.73D+00  1.18D+02    0.00000D+00

 ** RSPCTL MICROITERATION NUMBER    6

 *** INFO, negative eigenvalues in reduced matrix. Symmetry  4,  triplet       F Dimension of reduced matrix =    14

 GP * SOLUTION vector at frequency     0.00000 a.u.
 after    7 linear transformations is      6.10431283D+03
 INERTIA (POS,ZER,NEG) of reduced matrix is   13    0    1
 Determinant of reduced matrix is -2.54 * 10 **-11.0

       No.  Residual tot.,    conf., and orb.    Bnorm      Frequency 
      ----------------------------------------------------------------
         1    2.80251D+00  2.49D+00  1.29D+00  1.19D+02    0.00000D+00

 ** RSPCTL MICROITERATION NUMBER    7

 *** INFO, negative eigenvalues in reduced matrix. Symmetry  4,  triplet       F Dimension of reduced matrix =    16

 GP * SOLUTION vector at frequency     0.00000 a.u.
 after    8 linear transformations is      6.10917622D+03
 INERTIA (POS,ZER,NEG) of reduced matrix is   15    0    1
 Determinant of reduced matrix is -2.19 * 10 **-11.0

       No.  Residual tot.,    conf., and orb.    Bnorm      Frequency 
      ----------------------------------------------------------------
         1    1.87803D+00  1.31D+00  1.35D+00  1.20D+02    0.00000D+00

 ** RSPCTL MICROITERATION NUMBER    8

 *** INFO, negative eigenvalues in reduced matrix. Symmetry  4,  triplet       F Dimension of reduced matrix =    18

 GP * SOLUTION vector at frequency     0.00000 a.u.
 after    9 linear transformations is      6.11008530D+03
 INERTIA (POS,ZER,NEG) of reduced matrix is   17    0    1
 Determinant of reduced matrix is -1.72 * 10 **-13.0

       No.  Residual tot.,    conf., and orb.    Bnorm      Frequency 
      ----------------------------------------------------------------
         1    1.44629D+00  1.32D+00  5.96D-01  1.21D+02    0.00000D+00

 ** RSPCTL MICROITERATION NUMBER    9

 *** INFO, negative eigenvalues in reduced matrix. Symmetry  4,  triplet       F Dimension of reduced matrix =    20

 GP * SOLUTION vector at frequency     0.00000 a.u.
 after   10 linear transformations is      6.11165303D+03
 INERTIA (POS,ZER,NEG) of reduced matrix is   19    0    1
 Determinant of reduced matrix is -1.99 * 10 **-13.0

       No.  Residual tot.,    conf., and orb.    Bnorm      Frequency 
      ----------------------------------------------------------------
         1    7.05963D-01  1.11D-01  6.97D-01  1.21D+02    0.00000D+00

 ** RSPCTL MICROITERATION NUMBER   10

 *** INFO, negative eigenvalues in reduced matrix. Symmetry  4,  triplet       F Dimension of reduced matrix =    22

 GP * SOLUTION vector at frequency     0.00000 a.u.
 after   11 linear transformations is      6.11189716D+03
 INERTIA (POS,ZER,NEG) of reduced matrix is   21    0    1
 Determinant of reduced matrix is -1.76 * 10 **-15.0

       No.  Residual tot.,    conf., and orb.    Bnorm      Frequency 
      ----------------------------------------------------------------
         1    3.15064D-01  1.78D-01  2.60D-01  1.22D+02    0.00000D+00

 ** RSPCTL MICROITERATION NUMBER   11

 *** INFO, negative eigenvalues in reduced matrix. Symmetry  4,  triplet       F Dimension of reduced matrix =    24

 GP * SOLUTION vector at frequency     0.00000 a.u.
 after   12 linear transformations is      6.11194155D+03
 INERTIA (POS,ZER,NEG) of reduced matrix is   23    0    1
 Determinant of reduced matrix is -5.91 * 10 **-17.0

       No.  Residual tot.,    conf., and orb.    Bnorm      Frequency 
      ----------------------------------------------------------------
         1    1.98440D-01  1.53D-01  1.26D-01  1.21D+02    0.00000D+00

 ** RSPCTL MICROITERATION NUMBER   12

 *** INFO, negative eigenvalues in reduced matrix. Symmetry  4,  triplet       F Dimension of reduced matrix =    26

 GP * SOLUTION vector at frequency     0.00000 a.u.
 after   13 linear transformations is      6.11196364D+03
 INERTIA (POS,ZER,NEG) of reduced matrix is   25    0    1
 Determinant of reduced matrix is -4.85 * 10 **-17.0

       No.  Residual tot.,    conf., and orb.    Bnorm      Frequency 
      ----------------------------------------------------------------
         1    1.11823D-01  3.07D-02  1.08D-01  1.22D+02    0.00000D+00

 *** THE REQUESTED    1 SOLUTION VECTORS CONVERGED

 Convergence of RSP solution vectors, threshold = 1.00D-03
 ---------------------------------------------------------------
 (dimension of paired reduced space:   26)
 RSP solution vector no.    1; norm of residual   9.20D-04

 *** RSPCTL MICROITERATIONS CONVERGED
    XDIPLEN     YDIPLEN      freq1     freq2                Norm
 ---------------------------------------------------------------
                          0.058400 -0.058400        121.60731572


 Perturbation symmetry.     KSYMOP:       1
 Perturbation spin symmetry.TRPLET:       F
 Orbital variables.         KZWOPT:    2762
 Configuration variables.   KZCONF:     115
 Total number of variables. KZVAR :    2877


 CRLRV2 -- linear response calc for sym:  1
 CRLRV2 -- operator label1: YDIPLEN 
 CRLRV2 -- operator label2: YDIPLEN 
 CRLRV2 -- freqr1 :   5.840000D-02
 CRLRV2 -- freqr2 :   5.840000D-02



 ---  SOLVING SETS OF LINEAR EQUATIONS FOR LINEAR RESPONSE PROPERTIES ---

 Operator symmetry = 1  ( A1 ); triplet =   F


 ** RSPCTL MICROITERATION NUMBER    1

       No.  Residual tot.,    conf., and orb.    Bnorm      Frequency 
      ----------------------------------------------------------------
         1    1.57538D+01  1.13D+00  1.57D+01  8.44D+01    1.16800D-01

 ** RSPCTL MICROITERATION NUMBER    2

       No.  Residual tot.,    conf., and orb.    Bnorm      Frequency 
      ----------------------------------------------------------------
         1    7.04209D+00  1.22D+00  6.94D+00  8.92D+01    1.16800D-01

 ** RSPCTL MICROITERATION NUMBER    3

       No.  Residual tot.,    conf., and orb.    Bnorm      Frequency 
      ----------------------------------------------------------------
         1    2.77517D+00  1.37D+00  2.41D+00  9.10D+01    1.16800D-01

 ** RSPCTL MICROITERATION NUMBER    4

       No.  Residual tot.,    conf., and orb.    Bnorm      Frequency 
      ----------------------------------------------------------------
         1    1.67305D+00  1.46D+00  8.14D-01  9.16D+01    1.16800D-01

 ** RSPCTL MICROITERATION NUMBER    5

       No.  Residual tot.,    conf., and orb.    Bnorm      Frequency 
      ----------------------------------------------------------------
         1    1.31964D+00  4.94D-01  1.22D+00  9.18D+01    1.16800D-01

 ** RSPCTL MICROITERATION NUMBER    6

       No.  Residual tot.,    conf., and orb.    Bnorm      Frequency 
      ----------------------------------------------------------------
         1    1.20971D+00  6.41D-01  1.03D+00  9.27D+01    1.16800D-01

 ** RSPCTL MICROITERATION NUMBER    7

       No.  Residual tot.,    conf., and orb.    Bnorm      Frequency 
      ----------------------------------------------------------------
         1    8.63378D-01  7.37D-01  4.50D-01  9.38D+01    1.16800D-01

 ** RSPCTL MICROITERATION NUMBER    8

       No.  Residual tot.,    conf., and orb.    Bnorm      Frequency 
      ----------------------------------------------------------------
         1    6.47057D-01  3.12D-01  5.67D-01  9.41D+01    1.16800D-01

 ** RSPCTL MICROITERATION NUMBER    9

       No.  Residual tot.,    conf., and orb.    Bnorm      Frequency 
      ----------------------------------------------------------------
         1    3.77059D-01  3.20D-01  2.00D-01  9.43D+01    1.16800D-01

 ** RSPCTL MICROITERATION NUMBER   10

       No.  Residual tot.,    conf., and orb.    Bnorm      Frequency 
      ----------------------------------------------------------------
         1    2.99398D-01  5.68D-02  2.94D-01  9.48D+01    1.16800D-01

 ** RSPCTL MICROITERATION NUMBER   11

       No.  Residual tot.,    conf., and orb.    Bnorm      Frequency 
      ----------------------------------------------------------------
         1    1.29804D-01  6.58D-02  1.12D-01  9.47D+01    1.16800D-01

 ** RSPCTL MICROITERATION NUMBER   12

       No.  Residual tot.,    conf., and orb.    Bnorm      Frequency 
      ----------------------------------------------------------------
         1    7.65348D-02  6.90D-02  3.30D-02  9.46D+01    1.16800D-01

 *** THE REQUESTED    1 SOLUTION VECTORS CONVERGED

 Convergence of RSP solution vectors, threshold = 1.00D-03
 ---------------------------------------------------------------
 (dimension of paired reduced space:   26)
 RSP solution vector no.    1; norm of residual   8.09D-04

 *** RSPCTL MICROITERATIONS CONVERGED
    YDIPLEN     YDIPLEN      freq1     freq2                Norm
 ---------------------------------------------------------------
                          0.058400  0.058400         94.60985779
  Time used in CRVEC2     is       2 hours 24 minutes 53 seconds


 ----- CALCULATING CONTRIBUTIONS TO SECOND HYPERPOLARIZABILITY -----


   Contribution                Term         Accumulated
 ------------------------------------------------------
 Na T[4] Nb Nc Nd    66285.03741471      66285.03741471
 Na T[3] Nx Nyz    -129300.35926639     -63015.32185168
 Na X[3] Ny Nz       66938.25562127       3922.93376959
 Nx A[3] Ny Nz       22312.75187376      26235.68564335
 Na X[2] Nyz        -17693.96030785       8541.72533550
 Nx A[2] Nyz        -43327.32901010     -34785.60367460

@ Cubic response function value in a.u. for
@ A operator, symmetry, frequency:   ZDIPLEN    1 -0.058400
@ B operator, symmetry, frequency:   ZDIPLEN    1  0.058400
@ C operator, symmetry, frequency:   ZDIPLEN    1 -0.058400
@ D operator, symmetry, frequency:   ZDIPLEN    1  0.058400

@ << A; B, C, D >>  =      -34785.60367460



   Contribution                Term         Accumulated
 ------------------------------------------------------
 Na T[4] Nb Nc Nd   109236.82067870     109236.82067870
 Na T[3] Nx Nyz   -1114324.13092553   -1005087.31024683
 Na X[3] Ny Nz       54971.65474984    -950115.65549699
 Nx A[3] Ny Nz       14023.95245557    -936091.70304142
 Na X[2] Nyz        334659.68644785    -601432.01659357
 Nx A[2] Nyz        -65213.36679075    -666645.38338432

@ Cubic response function value in a.u. for
@ A operator, symmetry, frequency:   XDIPLEN    2 -0.058400
@ B operator, symmetry, frequency:   XDIPLEN    2  0.058400
@ C operator, symmetry, frequency:   ZDIPLEN    1 -0.058400
@ D operator, symmetry, frequency:   ZDIPLEN    1  0.058400

@ << A; B, C, D >>  =     -666645.38338432



   Contribution                Term         Accumulated
 ------------------------------------------------------
 Na T[4] Nb Nc Nd    -4495.20496289      -4495.20496289
 Na T[3] Nx Nyz      -1996.37822635      -6491.58318924
 Na X[3] Ny Nz        8443.34490291       1951.76171367
 Nx A[3] Ny Nz        2908.91659451       4860.67830818
 Na X[2] Nyz         -1562.35130078       3298.32700740
 Nx A[2] Nyz         -7425.58934779      -4127.26234040

@ Cubic response function value in a.u. for
@ A operator, symmetry, frequency:   YDIPLEN    3 -0.058400
@ B operator, symmetry, frequency:   YDIPLEN    3  0.058400
@ C operator, symmetry, frequency:   ZDIPLEN    1 -0.058400
@ D operator, symmetry, frequency:   ZDIPLEN    1  0.058400

@ << A; B, C, D >>  =       -4127.26234040



   Contribution                Term         Accumulated
 ------------------------------------------------------
 Na T[4] Nb Nc Nd    98206.45762315      98206.45762315
 Na T[3] Nx Nyz    -584482.64862448    -486276.19100134
 Na X[3] Ny Nz       53569.87070185    -432706.32029949
 Nx A[3] Ny Nz       13327.48008187    -419378.84021762
 Na X[2] Nyz        138998.44170847    -280380.39850915
 Nx A[2] Nyz        -36881.42656237    -317261.82507152

@ Cubic response function value in a.u. for
@ A operator, symmetry, frequency:   XDIPLEN    2 -0.058400
@ B operator, symmetry, frequency:   ZDIPLEN    1  0.058400
@ C operator, symmetry, frequency:   XDIPLEN    2 -0.058400
@ D operator, symmetry, frequency:   ZDIPLEN    1  0.058400

@ << A; B, C, D >>  =     -317261.82507152



   Contribution                Term         Accumulated
 ------------------------------------------------------
 Na T[4] Nb Nc Nd    -4385.87879912      -4385.87879912
 Na T[3] Nx Nyz      -1832.29707122      -6218.17587034
 Na X[3] Ny Nz        8178.67148791       1960.49561757
 Nx A[3] Ny Nz        2750.00897127       4710.50458884
 Na X[2] Nyz         -1572.70423887       3137.80034997
 Nx A[2] Nyz         -7123.37774419      -3985.57739422

@ Cubic response function value in a.u. for
@ A operator, symmetry, frequency:   YDIPLEN    3 -0.058400
@ B operator, symmetry, frequency:   ZDIPLEN    1  0.058400
@ C operator, symmetry, frequency:   YDIPLEN    3 -0.058400
@ D operator, symmetry, frequency:   ZDIPLEN    1  0.058400

@ << A; B, C, D >>  =       -3985.57739422



   Contribution                Term         Accumulated
 ------------------------------------------------------
 Na T[4] Nb Nc Nd   126331.67268328     126331.67268328
 Na T[3] Nx Nyz    -604205.99920958    -477874.32652630
 Na X[3] Ny Nz       70672.94384873    -407201.38267757
 Nx A[3] Ny Nz       28086.79143499    -379114.59124257
 Na X[2] Nyz        -53048.19016280    -432162.78140537
 Nx A[2] Nyz        114976.46754136    -317186.31386402

@ Cubic response function value in a.u. for
@ A operator, symmetry, frequency:   ZDIPLEN    1 -0.058400
@ B operator, symmetry, frequency:   XDIPLEN    2  0.058400
@ C operator, symmetry, frequency:   ZDIPLEN    1 -0.058400
@ D operator, symmetry, frequency:   XDIPLEN    2  0.058400

@ << A; B, C, D >>  =     -317186.31386402



   Contribution                Term         Accumulated
 ------------------------------------------------------
 Na T[4] Nb Nc Nd  7635208.63047266    7635208.63047266
 Na T[3] Nx Nyz   -8285729.07003379    -650520.43956113
 Na X[3] Ny Nz      625262.15243678     -25258.28712434
 Nx A[3] Ny Nz      208420.71747893     183162.43035459
 Na X[2] Nyz         79310.79696604     262473.22732062
 Nx A[2] Nyz       -274804.87255291     -12331.64523229

@ Cubic response function value in a.u. for
@ A operator, symmetry, frequency:   XDIPLEN    2 -0.058400
@ B operator, symmetry, frequency:   XDIPLEN    2  0.058400
@ C operator, symmetry, frequency:   XDIPLEN    2 -0.058400
@ D operator, symmetry, frequency:   XDIPLEN    2  0.058400

@ << A; B, C, D >>  =      -12331.64523229



   Contribution                Term         Accumulated
 ------------------------------------------------------
 Na T[4] Nb Nc Nd    -1387.98554789      -1387.98554789
 Na T[3] Nx Nyz      -2961.75399810      -4349.73954600
 Na X[3] Ny Nz        7986.05695888       3636.31741288
 Nx A[3] Ny Nz        1317.05225567       4953.36966854
 Na X[2] Nyz         -1798.54848769       3154.82118085
 Nx A[2] Nyz         -7364.78847864      -4209.96729778

@ Cubic response function value in a.u. for
@ A operator, symmetry, frequency:   YDIPLEN    3 -0.058400
@ B operator, symmetry, frequency:   YDIPLEN    3  0.058400
@ C operator, symmetry, frequency:   XDIPLEN    2 -0.058400
@ D operator, symmetry, frequency:   XDIPLEN    2  0.058400

@ << A; B, C, D >>  =       -4209.96729778



   Contribution                Term         Accumulated
 ------------------------------------------------------
 Na T[4] Nb Nc Nd    -1315.50874543      -1315.50874543
 Na T[3] Nx Nyz      -3140.53753130      -4456.04627673
 Na X[3] Ny Nz        7585.98287276       3129.93659603
 Nx A[3] Ny Nz        1024.75776329       4154.69435931
 Na X[2] Nyz         -1407.92405645       2746.77030286
 Nx A[2] Nyz         -6206.14249749      -3459.37219463

@ Cubic response function value in a.u. for
@ A operator, symmetry, frequency:   YDIPLEN    3 -0.058400
@ B operator, symmetry, frequency:   XDIPLEN    2  0.058400
@ C operator, symmetry, frequency:   YDIPLEN    3 -0.058400
@ D operator, symmetry, frequency:   XDIPLEN    2  0.058400

@ << A; B, C, D >>  =       -3459.37219463



   Contribution                Term         Accumulated
 ------------------------------------------------------
 Na T[4] Nb Nc Nd     -150.24393028       -150.24393028
 Na T[3] Nx Nyz       1129.10171790        978.85778762
 Na X[3] Ny Nz         234.75069565       1213.60848327
 Nx A[3] Ny Nz          54.46508992       1268.07357318
 Na X[2] Nyz         -3539.63372282      -2271.56014964
 Nx A[2] Nyz         -1716.54144639      -3988.10159603

@ Cubic response function value in a.u. for
@ A operator, symmetry, frequency:   ZDIPLEN    1 -0.058400
@ B operator, symmetry, frequency:   YDIPLEN    3  0.058400
@ C operator, symmetry, frequency:   ZDIPLEN    1 -0.058400
@ D operator, symmetry, frequency:   YDIPLEN    3  0.058400

@ << A; B, C, D >>  =       -3988.10159603



   Contribution                Term         Accumulated
 ------------------------------------------------------
 Na T[4] Nb Nc Nd     3612.94403614       3612.94403614
 Na T[3] Nx Nyz       5682.00064516       9294.94468130
 Na X[3] Ny Nz       -4212.02546898       5082.91921232
 Nx A[3] Ny Nz          99.89470464       5182.81391696
 Na X[2] Nyz         -6614.28294049      -1431.46902353
 Nx A[2] Nyz         -2014.80013507      -3446.26915860

@ Cubic response function value in a.u. for
@ A operator, symmetry, frequency:   XDIPLEN    2 -0.058400
@ B operator, symmetry, frequency:   YDIPLEN    3  0.058400
@ C operator, symmetry, frequency:   XDIPLEN    2 -0.058400
@ D operator, symmetry, frequency:   YDIPLEN    3  0.058400

@ << A; B, C, D >>  =       -3446.26915860



   Contribution                Term         Accumulated
 ------------------------------------------------------
 Na T[4] Nb Nc Nd     -501.96347071       -501.96347071
 Na T[3] Nx Nyz       2194.30315828       1692.33968758
 Na X[3] Ny Nz        1439.22169557       3131.56138315
 Nx A[3] Ny Nz         479.74056519       3611.30194834
 Na X[2] Nyz         -6511.63052324      -2900.32857490
 Nx A[2] Nyz         -6541.87274621      -9442.20132111

@ Cubic response function value in a.u. for
@ A operator, symmetry, frequency:   YDIPLEN    3 -0.058400
@ B operator, symmetry, frequency:   YDIPLEN    3  0.058400
@ C operator, symmetry, frequency:   YDIPLEN    3 -0.058400
@ D operator, symmetry, frequency:   YDIPLEN    3  0.058400

@ << A; B, C, D >>  =       -9442.20132111



  Summary of gamma values for a set of frequencies
 -------------------------------------------------

@ B-freq:  0.058400
@ C-freq: -0.058400
@ D-freq:  0.058400

@ gamma(X;X,X,X)      12331.6452
@ gamma(X;X,Y,Y)       4209.9673
@ gamma(X;Y,Y,X)       4209.9673
@ gamma(X;Y,X,Y)       3446.2692
@ gamma(X;X,Z,Z)     666645.3834
@ gamma(X;Z,Z,X)     666645.3834
@ gamma(X;Z,X,Z)     317261.8251
@ gamma(Y;Y,X,X)       4209.9673
@ gamma(Y;X,X,Y)       4209.9673
@ gamma(Y;X,Y,X)       3459.3722
@ gamma(Y;Y,Y,Y)       9442.2013
@ gamma(Y;Y,Z,Z)       4127.2623
@ gamma(Y;Z,Z,Y)       4127.2623
@ gamma(Y;Z,Y,Z)       3985.5774
@ gamma(Z;Z,X,X)     666645.3834
@ gamma(Z;X,X,Z)     666645.3834
@ gamma(Z;X,Z,X)     317186.3139
@ gamma(Z;Z,Y,Y)       4127.2623
@ gamma(Z;Y,Y,Z)       4127.2623
@ gamma(Z;Y,Z,Y)       3988.1016
@ gamma(Z;Z,Z,Z)      34785.6037

@ Averaged gamma parallel to the applied field is    234595.750804

  Total CPU  time used in RESPONSE:   7 hours 20 minutes 31 seconds
  Total wall time used in RESPONSE:   7 hours 20 minutes 52 seconds


                   .-------------------------------------------.
                   | End of Dynamic Property Section (RESPONS) |
                   `-------------------------------------------'

  Total CPU  time used in DALTON:   8 hours 40 minutes 41 seconds
  Total wall time used in DALTON:   8 hours 41 minutes  7 seconds

 
     Date and time (Linux)  : Tue Feb 11 05:49:06 2020
     Host name              : Lab2-333-NPs                            
