

     ************************************************************************
     *************** Dalton - An Electronic Structure Program ***************
     ************************************************************************

    This is output from DALTON release Dalton2016.2 (2016)
         ( Web site: http://daltonprogram.org )

   ----------------------------------------------------------------------------

    NOTE:
     
    Dalton is an experimental code for the evaluation of molecular
    properties using (MC)SCF, DFT, CI, and CC wave functions.
    The authors accept no responsibility for the performance of
    the code or for the correctness of the results.
     
    The code (in whole or part) is provided under a licence and
    is not to be reproduced for further distribution without
    the written permission of the authors or their representatives.
     
    See the home page "http://daltonprogram.org" for further information.
     
    If results obtained with this code are published,
    the appropriate citations would be both of:
     
       K. Aidas, C. Angeli, K. L. Bak, V. Bakken, R. Bast,
       L. Boman, O. Christiansen, R. Cimiraglia, S. Coriani,
       P. Dahle, E. K. Dalskov, U. Ekstroem,
       T. Enevoldsen, J. J. Eriksen, P. Ettenhuber, B. Fernandez,
       L. Ferrighi, H. Fliegl, L. Frediani, K. Hald, A. Halkier,
       C. Haettig, H. Heiberg, T. Helgaker, A. C. Hennum,
       H. Hettema, E. Hjertenaes, S. Hoest, I.-M. Hoeyvik,
       M. F. Iozzi, B. Jansik, H. J. Aa. Jensen, D. Jonsson,
       P. Joergensen, J. Kauczor, S. Kirpekar,
       T. Kjaergaard, W. Klopper, S. Knecht, R. Kobayashi, H. Koch,
       J. Kongsted, A. Krapp, K. Kristensen, A. Ligabue,
       O. B. Lutnaes, J. I. Melo, K. V. Mikkelsen, R. H. Myhre,
       C. Neiss, C. B. Nielsen, P. Norman, J. Olsen,
       J. M. H. Olsen, A. Osted, M. J. Packer, F. Pawlowski,
       T. B. Pedersen, P. F. Provasi, S. Reine, Z. Rinkevicius,
       T. A. Ruden, K. Ruud, V. Rybkin, P. Salek, C. C. M. Samson,
       A. Sanchez de Meras, T. Saue, S. P. A. Sauer,
       B. Schimmelpfennig, K. Sneskov, A. H. Steindal,
       K. O. Sylvester-Hvid, P. R. Taylor, A. M. Teale,
       E. I. Tellgren, D. P. Tew, A. J. Thorvaldsen, L. Thoegersen,
       O. Vahtras, M. A. Watson, D. J. D. Wilson, M. Ziolkowski
       and H. Agren,
       "The Dalton quantum chemistry program system",
       WIREs Comput. Mol. Sci. 2014, 4:269–284 (doi: 10.1002/wcms.1172)
     
    and
     
       Dalton, a Molecular Electronic Structure Program,
       Release Dalton2016.2 (2016), see http://daltonprogram.org
   ----------------------------------------------------------------------------

    Authors in alphabetical order (major contribution(s) in parenthesis):

  Kestutis Aidas,           Vilnius University,           Lithuania   (QM/MM)
  Celestino Angeli,         University of Ferrara,        Italy       (NEVPT2)
  Keld L. Bak,              UNI-C,                        Denmark     (AOSOPPA, non-adiabatic coupling, magnetic properties)
  Vebjoern Bakken,          University of Oslo,           Norway      (DALTON; geometry optimizer, symmetry detection)
  Radovan Bast,             UiT The Arctic U. of Norway,  Norway      (DALTON installation and execution frameworks)
  Pablo Baudin,             University of Valencia,       Spain       (Cholesky excitation energies)
  Linus Boman,              NTNU,                         Norway      (Cholesky decomposition and subsystems)
  Ove Christiansen,         Aarhus University,            Denmark     (CC module)
  Renzo Cimiraglia,         University of Ferrara,        Italy       (NEVPT2)
  Sonia Coriani,            University of Trieste,        Italy       (CC module, MCD in RESPONS)
  Janusz Cukras,            University of Trieste,        Italy       (MChD in RESPONS)
  Paal Dahle,               University of Oslo,           Norway      (Parallelization)
  Erik K. Dalskov,          UNI-C,                        Denmark     (SOPPA)
  Thomas Enevoldsen,        Univ. of Southern Denmark,    Denmark     (SOPPA)
  Janus J. Eriksen,         Aarhus University,            Denmark     (Polarizable embedding model, TDA)
  Rasmus Faber,             University of Copenhagen,     Denmark     (Vib.avg. NMR with SOPPA, parallel AO-SOPPA)
  Berta Fernandez,          U. of Santiago de Compostela, Spain       (doublet spin, ESR in RESPONS)
  Lara Ferrighi,            Aarhus University,            Denmark     (PCM Cubic response)
  Heike Fliegl,             University of Oslo,           Norway      (CCSD(R12))
  Luca Frediani,            UiT The Arctic U. of Norway,  Norway      (PCM)
  Bin Gao,                  UiT The Arctic U. of Norway,  Norway      (Gen1Int library)
  Christof Haettig,         Ruhr-University Bochum,       Germany     (CC module)
  Kasper Hald,              Aarhus University,            Denmark     (CC module)
  Asger Halkier,            Aarhus University,            Denmark     (CC module)
  Frederik Beyer Hansen,    University of Copenhagen,     Denmark     (Parallel AO-SOPPA)
  Erik D. Hedegaard,        Univ. of Southern Denmark,    Denmark     (Polarizable embedding model, QM/MM)
  Hanne Heiberg,            University of Oslo,           Norway      (geometry analysis, selected one-electron integrals)
  Trygve Helgaker,          University of Oslo,           Norway      (DALTON; ABACUS, ERI, DFT modules, London, and much more)
  Alf Christian Hennum,     University of Oslo,           Norway      (Parity violation)
  Hinne Hettema,            University of Auckland,       New Zealand (quadratic response in RESPONS; SIRIUS supersymmetry)
  Eirik Hjertenaes,         NTNU,                         Norway      (Cholesky decomposition)
  Maria Francesca Iozzi,    University of Oslo,           Norway      (RPA)
  Brano Jansik              Technical Univ. of Ostrava    Czech Rep.  (DFT cubic response)
  Hans Joergen Aa. Jensen,  Univ. of Southern Denmark,    Denmark     (DALTON; SIRIUS, RESPONS, ABACUS modules, London, and much more)
  Dan Jonsson,              UiT The Arctic U. of Norway,  Norway      (cubic response in RESPONS module)
  Poul Joergensen,          Aarhus University,            Denmark     (RESPONS, ABACUS, and CC modules)
  Maciej Kaminski,          University of Warsaw,         Poland      (CPPh in RESPONS)
  Joanna Kauczor,           Linkoeping University,        Sweden      (Complex polarization propagator (CPP) module)
  Sheela Kirpekar,          Univ. of Southern Denmark,    Denmark     (Mass-velocity & Darwin integrals)
  Wim Klopper,              KIT Karlsruhe,                Germany     (R12 code in CC, SIRIUS, and ABACUS modules)
  Stefan Knecht,            ETH Zurich,                   Switzerland (Parallel CI and MCSCF)
  Rika Kobayashi,           Australian National Univ.,    Australia   (DIIS in CC, London in MCSCF)
  Henrik Koch,              NTNU,                         Norway      (CC module, Cholesky decomposition)
  Jacob Kongsted,           Univ. of Southern Denmark,    Denmark     (Polarizable embedding model, QM/MM)
  Andrea Ligabue,           University of Modena,         Italy       (CTOCD, AOSOPPA)
  Nanna H. List             Univ. of Southern Denmark,    Denmark     (Polarizable embedding model)
  Ola B. Lutnaes,           University of Oslo,           Norway      (DFT Hessian)
  Juan I. Melo,             University of Buenos Aires,   Argentina   (LRESC, Relativistic Effects on NMR Shieldings)
  Kurt V. Mikkelsen,        University of Copenhagen,     Denmark     (MC-SCRF and QM/MM)
  Rolf H. Myhre,            NTNU,                         Norway      (Cholesky, subsystems and ECC2)
  Christian Neiss,          Univ. Erlangen-Nuernberg,     Germany     (CCSD(R12))
  Christian B. Nielsen,     University of Copenhagen,     Denmark     (QM/MM)
  Patrick Norman,           Linkoeping University,        Sweden      (Cubic response and complex frequency response in RESPONS)
  Jeppe Olsen,              Aarhus University,            Denmark     (SIRIUS CI/density modules)
  Jogvan Magnus H. Olsen,   Univ. of Southern Denmark,    Denmark     (Polarizable embedding model, QM/MM)
  Anders Osted,             Copenhagen University,        Denmark     (QM/MM)
  Martin J. Packer,         University of Sheffield,      UK          (SOPPA)
  Filip Pawlowski,          Kazimierz Wielki University,  Poland      (CC3)
  Morten N. Pedersen,       Univ. of Southern Denmark,    Denmark     (Polarizable embedding model)
  Thomas B. Pedersen,       University of Oslo,           Norway      (Cholesky decomposition)
  Patricio F. Provasi,      University of Northeastern,   Argentina   (Analysis of coupling constants in localized orbitals)
  Zilvinas Rinkevicius,     KTH Stockholm,                Sweden      (open-shell DFT, ESR)
  Elias Rudberg,            KTH Stockholm,                Sweden      (DFT grid and basis info)
  Torgeir A. Ruden,         University of Oslo,           Norway      (Numerical derivatives in ABACUS)
  Kenneth Ruud,             UiT The Arctic U. of Norway,  Norway      (DALTON; ABACUS magnetic properties and much more)
  Pawel Salek,              KTH Stockholm,                Sweden      (DALTON; DFT code)
  Claire C. M. Samson       University of Karlsruhe       Germany     (Boys localization, r12 integrals in ERI)
  Alfredo Sanchez de Meras, University of Valencia,       Spain       (CC module, Cholesky decomposition)
  Trond Saue,               Paul Sabatier University,     France      (direct Fock matrix construction)
  Stephan P. A. Sauer,      University of Copenhagen,     Denmark     (SOPPA(CCSD), SOPPA prop., AOSOPPA, vibrational g-factors)
  Bernd Schimmelpfennig,    Forschungszentrum Karlsruhe,  Germany     (AMFI module)
  Kristian Sneskov,         Aarhus University,            Denmark     (Polarizable embedding model, QM/MM)
  Arnfinn H. Steindal,      UiT The Arctic U. of Norway,  Norway      (parallel QM/MM, Polarizable embedding model)
  Casper Steinmann,         Univ. of Southern Denmark,    Denmark     (QFIT, Polarizable embedding model)
  K. O. Sylvester-Hvid,     University of Copenhagen,     Denmark     (MC-SCRF)
  Peter R. Taylor,          VLSCI/Univ. of Melbourne,     Australia   (Symmetry handling ABACUS, integral transformation)
  Andrew M. Teale,          University of Nottingham,     England     (DFT-AC, DFT-D)
  David P. Tew,             University of Bristol,        England     (CCSD(R12))
  Olav Vahtras,             KTH Stockholm,                Sweden      (triplet response, spin-orbit, ESR, TDDFT, open-shell DFT)
  David J. Wilson,          La Trobe University,          Australia   (DFT Hessian and DFT magnetizabilities)
  Hans Agren,               KTH Stockholm,                Sweden      (SIRIUS module, RESPONS, MC-SCRF solvation model)
 --------------------------------------------------------------------------------

     Date and time (Linux)  : Sat Nov 10 16:28:55 2018
     Host name              : Mechanist                               

 * Work memory size             :    64000000 =  488.28 megabytes.

 * Directories for basis set searches:
   1) /home/Main/dalton/build_gnu_builtin_2016
   2) /home/Main/dalton/build_gnu_builtin_2016/basis


Compilation information
-----------------------

 Who compiled             | Main
 Host                     | Mechanist
 System                   | Linux-4.4.0-17134-Microsoft
 CMake generator          | Unix Makefiles
 Processor                | x86_64
 64-bit integers          | OFF
 MPI                      | OFF
 Fortran compiler         | /home/Main/psi4conda/bin/gfortran
 Fortran compiler version | GNU Fortran (GCC) 5.2.0
 C compiler               | /home/Main/psi4conda/bin/gcc
 C compiler version       | gcc (GCC) 5.2.0
 C++ compiler             | /home/Main/psi4conda/bin/g++
 C++ compiler version     | g++ (GCC) 5.2.0
 Static linking           | OFF
 Last Git revision        | 130ffaa0613bb3af6cac766fc8183d6df7d68917
 Git branch               | release/2016
 Configuration time       | 2018-11-08 14:06:24.912435


   Content of the .dal input file
 ----------------------------------

**DALTON INPUT
.OPTIMIZE
**WAVE FUNCTIONS
.DFT
B3LYP
**END OF DALTON INPUT


   Content of the .mol file
 ----------------------------

BASIS
6-311G*
nitrobenzene
-----------
Atomtypes=4 Angstrom
Charge=6.0 Atoms=6
C_1         -5.51874        3.72297        0.42881
C_2         -4.08599        3.64936        0.15148
C_3         -3.36685        2.39165        0.24797
C_4         -4.09245        1.20301        0.64536
C_5         -5.51448        1.32010        0.92327
C_6         -6.19453        2.60930        0.79458
Charge=1.0 Atoms=5
H_1         -3.55509        4.54592       -0.14940
H_2         -2.31314        2.33917        0.00282
H_3         -3.59136        0.24593        0.71941
H_4         -6.06454        0.43834        1.23299
H_5         -5.98979        4.69580        0.32102
Charge=7.0 Atoms=1
N         -7.63145        2.72782        1.05606
Charge=8.0 Atoms=2
O_a         -8.15148        3.85210        1.00466
O_b         -8.24747        1.68391        1.31646


       *******************************************************************
       *********** Output from DALTON general input processing ***********
       *******************************************************************

 --------------------------------------------------------------------------------
   Overall default print level:    0
   Print level for DALTON.STAT:    1

    "Old" integral transformation used (limited to max 255 basis functions)
 --------------------------------------------------------------------------------


 Chosen parameters for *OPTIMI :
 -------------------------------

 Default 1st order method will be used:   BFGS update.
 Optimization will be performed in redundant internal coordinates (by default).
 Model Hessian will be used as initial Hessian.
 The model Hessian parameters of Roland Lindh will be used.


 Trust region method will be used to control step (default).

 Convergence threshold for gradient set to :      1.00D-04
 Convergence threshold for energy set to   :      1.00D-06
 Convergence threshold for step set to     :      1.00D-04
 Number of convergence criteria set to     :   2


              >>>>>>>>>>>>>>>>>>>>>>>>>>>>>>>>>>>>>>>>>>>>>>>>>>>>>
              >>>>>>>>>> 1st Order Geometry Optimization >>>>>>>>>>
              >>>>>>>>>>>>>>>>>>>>>>>>>>>>>>>>>>>>>>>>>>>>>>>>>>>>>


 Reading .mol file to determine number of atoms for parallel runs.


                      SYMADD: Requested addition of symmetry
                      --------------------------------------

 Symmetry test threshold:  5.00E-06

@   The molecule is centered at center of mass and rotated
@   so principal axes of inertia are along coordinate axes.

 Symmetry class found: C(1)           

 No symmetry elements were found.


   ****************************************************************************
   *************** Output of molecule and basis set information ***************
   ****************************************************************************


    The two title cards from your ".mol" input:
    ------------------------------------------------------------------------
 1: nitrobenzene                                                            
 2: -----------                                                             
    ------------------------------------------------------------------------

  Coordinates are entered in Angstrom and converted to atomic units.
          - Conversion factor : 1 bohr = 0.52917721 A

  Atomic type no.    1
  --------------------
  Nuclear charge:   6.00000
  Number of symmetry independent centers:    6
  Number of basis sets to read;    2
  Basis set file used for this atomic type with Z =   6 :
     "/home/Main/dalton/build_gnu_builtin_2016/basis/6-311G*"

  Info about the basis set file: your basis has no documentation.
  Basis set: 6-311G*                                                                         

  Atomic type no.    2
  --------------------
  Nuclear charge:   1.00000
  Number of symmetry independent centers:    5
  Number of basis sets to read;    2
  Basis set file used for this atomic type with Z =   1 :
     "/home/Main/dalton/build_gnu_builtin_2016/basis/6-311G*"

  Info about the basis set file: your basis has no documentation.
  Basis set: 6-311G*                                                                         

  Atomic type no.    3
  --------------------
  Nuclear charge:   7.00000
  Number of symmetry independent centers:    1
  Number of basis sets to read;    2
  Basis set file used for this atomic type with Z =   7 :
     "/home/Main/dalton/build_gnu_builtin_2016/basis/6-311G*"

  Info about the basis set file: your basis has no documentation.
  Basis set: 6-311G*                                                                         

  Atomic type no.    4
  --------------------
  Nuclear charge:   8.00000
  Number of symmetry independent centers:    2
  Number of basis sets to read;    2
  Basis set file used for this atomic type with Z =   8 :
     "/home/Main/dalton/build_gnu_builtin_2016/basis/6-311G*"

  Info about the basis set file: your basis has no documentation.
  Basis set: 6-311G*                                                                         


                      SYMADD: Requested addition of symmetry
                      --------------------------------------

 Symmetry test threshold:  5.00E-06

@   The molecule is centered at center of mass and rotated
@   so principal axes of inertia are along coordinate axes.

 Symmetry class found: C(1)           

 Symmetry Independent Centres             
 ----------------------------
       8 :     -0.10435797     2.12033709    -4.22325655  Isotope  1
       8 :      0.08887690    -2.01735950    -4.32302770  Isotope  1
       7 :     -0.00237341     0.02538444    -3.17940267  Isotope  1
       6 :      0.01078880    -0.00838741    -0.41058954  Isotope  1
       6 :     -0.03391611    -2.27727354     0.76748130  Isotope  1
       6 :      0.06416063     2.35005587     1.03190183  Isotope  1
       6 :     -0.03614108    -2.39947528     3.52604120  Isotope  1
       6 :      0.04236399     2.30932281     3.77852348  Isotope  1
       6 :     -0.01651466    -0.11531230     5.04627659  Isotope  1
       1 :     -0.07814032    -4.06546875    -0.23945432  Isotope  1
       1 :      0.13070317     4.15541577     0.06453654  Isotope  1
       1 :     -0.08867224    -4.22691872     4.45231847  Isotope  1
       1 :      0.04142824     4.05281763     4.84977155  Isotope  1
       1 :     -0.09268052    -0.22318083     7.08882020  Isotope  1

 No symmetry elements were found.


                         SYMGRP: Point group information
                         -------------------------------

@    Full point group is: C(1)           
@    Represented as:      C1 


                                 Isotopic Masses
                                 ---------------

                           C_1        12.000000
                           C_2        12.000000
                           C_3        12.000000
                           C_4        12.000000
                           C_5        12.000000
                           C_6        12.000000
                           H_1         1.007825
                           H_2         1.007825
                           H_3         1.007825
                           H_4         1.007825
                           H_5         1.007825
                           N          14.003074
                           O_a        15.994915
                           O_b        15.994915

                       Total mass:   123.032029 amu
                       Natural abundance:  92.716 %

 Center-of-mass coordinates (a.u.):    0.000000   -0.000000   -0.000000


  Atoms and basis sets
  --------------------

  Number of atom types :    4
  Total number of atoms:   14

  Basis set used is "6-311G*" from the basis set library.

  label    atoms   charge   prim   cont     basis
  ----------------------------------------------------------------------
  C_          6    6.0000    31    18      [11s5p1d|4s3p1d]                                   
  H_          5    1.0000     5     3      [5s|3s]                                            
  N           1    7.0000    31    18      [11s5p1d|4s3p1d]                                   
  O_          2    8.0000    31    18      [11s5p1d|4s3p1d]                                   
  ----------------------------------------------------------------------
  total:     14   64.0000   304   177
  ----------------------------------------------------------------------
  Spherical harmonic basis used.

  Threshold for neglecting AO integrals:  1.00D-12


   Interatomic separations (in Angstrom):
   --------------------------------------

            C_1         C_2         C_3         C_4         C_5         C_6   
            ------      ------      ------      ------      ------      ------
 C_1   :    0.000000
 C_2   :    1.461199    0.000000
 C_3   :    2.536877    1.452001    0.000000
 C_4   :    2.903687    2.495714    1.448199    0.000000
 C_5   :    2.453221    2.839313    2.493304    1.453655    0.000000
 C_6   :    1.353049    2.437467    2.888240    2.533507    1.463238    0.000000
 H_1   :    2.206240    1.084529    2.198685    3.477851    3.923741    3.407087
 H_2   :    3.517420    2.209456    1.083124    2.206731    3.483434    3.970522
 H_3   :    3.986107    3.485762    2.208342    1.082856    2.212191    3.516769
 H_4   :    3.425405    3.923643    3.473214    2.195260    1.084432    2.218596
 H_5   :    1.086234    2.179044    3.492028    3.988067    3.461788    2.149339
 N     :    2.418121    3.773299    4.353485    3.875338    2.545755    1.465318
 O_a   :    2.698073    4.158994    5.059464    4.860298    3.656695    2.327733
 O_b   :    3.520178    4.747430    5.046089    4.236252    2.784994    2.311551

            H_1         H_2         H_3         H_4         H_5         N     
            ------      ------      ------      ------      ------      ------
 H_1   :    0.000000
 H_2   :    2.536800    0.000000
 H_3   :    4.387033    2.555191    0.000000
 H_4   :    5.008049    4.381721    2.533260    0.000000
 H_5   :    2.484255    4.378665    5.070752    4.354681    0.000000
 N     :    4.623346    5.435511    4.753466    2.779969    2.666135    0.000000
 O_a   :    4.789576    6.113825    5.820698    4.007644    2.419111    1.239790
 O_b   :    5.688434    6.113206    4.909543    2.514676    3.893520    1.239773

            O_a         O_b   
            ------      ------
 O_a   :    0.000000
 O_b   :    2.192597    0.000000


  Max    interatomic separation is    6.1138 Angstrom (   11.5535 Bohr)
  between atoms   13 and    8, "O_a   " and "H_2   ".

  Min HX interatomic separation is    1.0829 Angstrom (    2.0463 Bohr)

  Min YX interatomic separation is    1.2398 Angstrom (    2.3428 Bohr)


  Bond distances (Angstrom):
  --------------------------

                  atom 1     atom 2       distance
                  ------     ------       --------
  bond distance:  C_2        C_1          1.461199
  bond distance:  C_3        C_2          1.452001
  bond distance:  C_4        C_3          1.448199
  bond distance:  C_5        C_4          1.453655
  bond distance:  C_6        C_1          1.353049
  bond distance:  C_6        C_5          1.463238
  bond distance:  H_1        C_2          1.084529
  bond distance:  H_2        C_3          1.083124
  bond distance:  H_3        C_4          1.082856
  bond distance:  H_4        C_5          1.084432
  bond distance:  H_5        C_1          1.086234
  bond distance:  N          C_6          1.465318
  bond distance:  O_a        N            1.239790
  bond distance:  O_b        N            1.239773


  Bond angles (degrees):
  ----------------------

                  atom 1     atom 2     atom 3         angle
                  ------     ------     ------         -----
  bond angle:     C_2        C_1        C_6          119.972
  bond angle:     C_2        C_1        H_5          116.840
  bond angle:     C_6        C_1        H_5          123.188
  bond angle:     C_1        C_2        C_3          121.108
  bond angle:     C_1        C_2        H_1          119.406
  bond angle:     C_3        C_2        H_1          119.476
  bond angle:     C_2        C_3        C_4          118.753
  bond angle:     C_2        C_3        H_2          120.581
  bond angle:     C_4        C_3        H_2          120.648
  bond angle:     C_3        C_4        C_5          118.456
  bond angle:     C_3        C_4        H_3          120.820
  bond angle:     C_5        C_4        H_3          120.717
  bond angle:     C_4        C_5        C_6          120.584
  bond angle:     C_4        C_5        H_4          119.032
  bond angle:     C_6        C_5        H_4          120.383
  bond angle:     C_1        C_6        C_5          121.120
  bond angle:     C_1        C_6        N            118.128
  bond angle:     C_5        C_6        N            120.752
  bond angle:     C_6        N          O_a          118.507
  bond angle:     C_6        N          O_b          117.170
  bond angle:     O_a        N          O_b          124.323




 Principal moments of inertia (u*A**2) and principal axes
 --------------------------------------------------------

   IA     131.020674          0.000000    0.000000    1.000000
   IB     411.239887          0.000000    1.000000   -0.000000
   IC     542.010001          1.000000    0.000000    0.000000


 Rotational constants
 --------------------

               A                   B                   C

           3857.2463           1228.9153            932.4164 MHz
            0.128664            0.040992            0.031102 cm-1


@  Nuclear repulsion energy :  404.600051874502 Hartree


                     .---------------------------------------.
                     | Starting in Integral Section (HERMIT) |
                     `---------------------------------------'



 ***************************************************************************************
 ****************** Output from **INTEGRALS input processing (HERMIT) ******************
 ***************************************************************************************


 - Using defaults, no **INTEGRALS input found

 Default print level:        1

 * Nuclear model: Point charge

 Calculation of one- and two-electron Hamiltonian integrals.

 Center of mass  (bohr):      0.000000000000     -0.000000000000     -0.000000000000
 Operator center (bohr):      0.000000000000      0.000000000000      0.000000000000
 Gauge origin    (bohr):      0.000000000000     -0.000000000000     -0.000000000000
 Dipole origin   (bohr):      0.000000000000     -0.000000000000     -0.000000000000


     ************************************************************************
     ************************** Output from HERINT **************************
     ************************************************************************


 Threshold for neglecting two-electron integrals:  1.00D-12
 HERMIT - Number of two-electron integrals written:    84927547 ( 68.4% )
 HERMIT - Megabytes written:                            972.459

  Time used in TWOINT     is      15.50 seconds
  Total CPU  time used in HERMIT:  15.70 seconds
  Total wall time used in HERMIT:  17.55 seconds


                        .----------------------------------.
                        | End of Integral Section (HERMIT) |
                        `----------------------------------'



                   .--------------------------------------------.
                   | Starting in Wave Function Section (SIRIUS) |
                   `--------------------------------------------'


 *** Output from Huckel module :

     Using EWMO model:          T
     Using EHT  model:          F
     Number of Huckel orbitals each symmetry:   50

 EWMO - Energy Weighted Maximum Overlap - is a Huckel type method,
        which normally is better than Extended Huckel Theory.
 Reference: Linderberg and Ohrn, Propagators in Quantum Chemistry (Wiley, 1973)

 Huckel EWMO eigenvalues for symmetry :  1
          -20.684736     -20.683406     -15.676896     -11.360992     -11.353119
          -11.351438     -11.347174     -11.346892     -11.344256      -1.995055
           -1.809541      -1.512981      -1.372092      -1.347473      -1.025103
           -0.988486      -0.915267      -0.883384      -0.823830      -0.722844
           -0.683062      -0.668450      -0.618150      -0.586483      -0.570549
           -0.537193      -0.498846      -0.488618      -0.482427      -0.467816
           -0.418795      -0.414023      -0.348230      -0.260126      -0.243322
           -0.230189      -0.203657      -0.186833      -0.168009      -0.134801
           -0.132367      -0.130444      -0.126368      -0.118414      -0.110533
           -0.105656      -0.100681      -0.097623      -0.087441      -0.079125

 **********************************************************************
 *SIRIUS* a direct, restricted step, second order MCSCF program       *
 **********************************************************************

 
     Date and time (Linux)  : Sat Nov 10 16:29:13 2018
     Host name              : Mechanist                               

 Title lines from ".mol" input file:
     nitrobenzene                                                            
     -----------                                                             

 Print level on unit LUPRI =   2 is   0
 Print level on unit LUW4  =   2 is   5

@    Restricted, closed shell Kohn-Sham DFT calculation.

 Initial molecular orbitals are obtained according to
 ".MOSTART EWMO  " input option

     Wave function specification
     ============================
@    Wave function type        --- KS-DFT ---
@    Number of closed shell electrons          64
@    Number of electrons in active shells       0
@    Total charge of the molecule               0

@    Spin multiplicity and 2 M_S                1         0
@    Total number of symmetries                 1 (point group: C1 )
@    Reference state symmetry                   1 (irrep name : A  )
 
     This is a DFT calculation of type: B3LYP
 Weighted mixed functional:
               HF exchange:    0.20000
                       VWN:    0.19000
                       LYP:    0.81000
                     Becke:    0.72000
                    Slater:    0.80000

     Orbital specifications
     ======================
@    Abelian symmetry species          All |    1
@                                          |  A  
                                       --- |  ---
@    Occupied SCF orbitals              32 |   32
@    Secondary orbitals                145 |  145
@    Total number of orbitals          177 |  177
@    Number of basis functions         177 |  177

     Optimization information
     ========================
@    Number of configurations                 1
@    Number of orbital rotations           4640
     ------------------------------------------
@    Total number of variables             4641

     Maximum number of Fock   iterations      0
     Maximum number of DIIS   iterations     60
     Maximum number of QC-SCF iterations     60
     Threshold for SCF convergence     1.00D-05
 
     This is a DFT calculation of type: B3LYP
 Weighted mixed functional:
               HF exchange:    0.20000
                       VWN:    0.19000
                       LYP:    0.81000
                     Becke:    0.72000
                    Slater:    0.80000


 ***********************************************
 ***** DIIS acceleration of SCF iterations *****
 ***********************************************

 C1-DIIS algorithm; max error vectors =    8

 Iter      Total energy        Error norm    Delta(E)  DIIS dim.
 -----------------------------------------------------------------------------
      K-S energy, electrons, error :    -46.210026017720  64.0000486805    4.87D-05
@  1    -434.856676796        5.59595D+00   -4.35D+02    1
      Virial theorem: -V/T =      2.010923
@      MULPOP C_1     0.11; C_2     0.14; C_3     0.18; C_4     0.15; C_5     0.04; C_6     0.50; H_1    -0.15; H_2    -0.14; H_3    -0.15; H_4    -0.16; 
@             H_5    -0.16; N       1.56; O_a    -0.97; O_b    -0.98; 
   1  Level shift: doubly occupied orbital energies shifted by -2.00D-01
 -----------------------------------------------------------------------------
      K-S energy, electrons, error :    -47.351313654732  64.0000243638    2.44D-05
@  2    -434.033684582        7.71319D+00    8.23D-01    2
      Virial theorem: -V/T =      1.989600
@      MULPOP C_1    -0.42; C_2    -0.29; C_3    -0.28; C_4    -0.29; C_5    -0.33; C_6    -0.72; H_1     0.35; H_2     0.35; H_3     0.35; H_4     0.38; 
@             H_5     0.39; N      -1.55; O_a     1.02; O_b     1.05; 
   2  Level shift: doubly occupied orbital energies shifted by -2.00D-01
 -----------------------------------------------------------------------------
      K-S energy, electrons, error :    -47.256412517939  64.0000220442    2.20D-05
@  3    -436.488823193        1.22310D+00   -2.46D+00    3
      Virial theorem: -V/T =      1.998479
@      MULPOP C_1    -0.33; C_2    -0.32; C_3    -0.32; C_4    -0.32; C_5    -0.31; C_6     0.22; H_1     0.31; H_2     0.32; H_3     0.32; H_4     0.32; 
@             H_5     0.33; N      -0.04; O_a    -0.09; O_b    -0.08; 
   3  Level shift: doubly occupied orbital energies shifted by -5.00D-02
 -----------------------------------------------------------------------------
      K-S energy, electrons, error :    -46.881115650431  64.0000231692    2.32D-05
@  4    -436.572997747        6.50346D-01   -8.42D-02    4
      Virial theorem: -V/T =      2.006123
@      MULPOP C_1    -0.13; C_2    -0.12; C_3    -0.06; C_4    -0.10; C_5    -0.17; C_6     0.11; H_1     0.16; H_2     0.16; H_3     0.17; H_4     0.20; 
@             H_5     0.20; N       0.08; O_a    -0.24; O_b    -0.26; 
   4  Level shift: doubly occupied orbital energies shifted by -5.00D-02
 -----------------------------------------------------------------------------
      K-S energy, electrons, error :    -46.950834125472  64.0000232356    2.32D-05
@  5    -436.597817029        1.84603D-01   -2.48D-02    5
      Virial theorem: -V/T =      2.004886
@      MULPOP C_1    -0.18; C_2    -0.22; C_3    -0.21; C_4    -0.22; C_5    -0.19; C_6     0.26; H_1     0.22; H_2     0.22; H_3     0.22; H_4     0.24; 
@             H_5     0.24; N       0.18; O_a    -0.29; O_b    -0.26; 
   5  Level shift: doubly occupied orbital energies shifted by -2.50D-02
 -----------------------------------------------------------------------------
      K-S energy, electrons, error :    -46.980674596053  64.0000228943    2.29D-05
@  6    -436.599423369        8.65766D-02   -1.61D-03    6
      Virial theorem: -V/T =      2.004230
@      MULPOP C_1    -0.20; C_2    -0.20; C_3    -0.17; C_4    -0.19; C_5    -0.23; C_6     0.22; H_1     0.22; H_2     0.22; H_3     0.22; H_4     0.25; 
@             H_5     0.25; N       0.16; O_a    -0.26; O_b    -0.29; 
   6  Level shift: doubly occupied orbital energies shifted by -1.25D-02
 -----------------------------------------------------------------------------
      K-S energy, electrons, error :    -46.977545859460  64.0000229284    2.29D-05
@  7    -436.599667438        5.36235D-02   -2.44D-04    7
      Virial theorem: -V/T =      2.004296
@      MULPOP C_1    -0.19; C_2    -0.21; C_3    -0.18; C_4    -0.20; C_5    -0.21; C_6     0.22; H_1     0.22; H_2     0.22; H_3     0.22; H_4     0.24; 
@             H_5     0.25; N       0.15; O_a    -0.28; O_b    -0.25; 
   7  Level shift: doubly occupied orbital energies shifted by -1.25D-02
 -----------------------------------------------------------------------------
      K-S energy, electrons, error :    -46.974479696391  64.0000229441    2.29D-05
@  8    -436.599786728        1.77752D-02   -1.19D-04    8
      Virial theorem: -V/T =      2.004367
@      MULPOP C_1    -0.19; C_2    -0.21; C_3    -0.18; C_4    -0.20; C_5    -0.21; C_6     0.22; H_1     0.22; H_2     0.22; H_3     0.22; H_4     0.24; 
@             H_5     0.25; N       0.15; O_a    -0.26; O_b    -0.27; 
 -----------------------------------------------------------------------------
      K-S energy, electrons, error :    -46.974376534796  64.0000229420    2.29D-05
@  9    -436.599803266        6.34604D-03   -1.65D-05    8
      Virial theorem: -V/T =      2.004372
@      MULPOP C_1    -0.19; C_2    -0.21; C_3    -0.18; C_4    -0.20; C_5    -0.21; C_6     0.22; H_1     0.22; H_2     0.22; H_3     0.22; H_4     0.24; 
@             H_5     0.25; N       0.15; O_a    -0.27; O_b    -0.26; 
 -----------------------------------------------------------------------------
      K-S energy, electrons, error :    -46.975123655158  64.0000229398    2.29D-05
@ 10    -436.599805657        7.59631D-04   -2.39D-06    8
      Virial theorem: -V/T =      2.004355
@      MULPOP C_1    -0.19; C_2    -0.21; C_3    -0.18; C_4    -0.20; C_5    -0.21; C_6     0.22; H_1     0.22; H_2     0.22; H_3     0.22; H_4     0.24; 
@             H_5     0.25; N       0.15; O_a    -0.27; O_b    -0.26; 
 -----------------------------------------------------------------------------
      K-S energy, electrons, error :    -46.975061617989  64.0000229401    2.29D-05
@ 11    -436.599805687        2.82233D-04   -2.93D-08    8
      Virial theorem: -V/T =      2.004357
@      MULPOP C_1    -0.19; C_2    -0.21; C_3    -0.18; C_4    -0.20; C_5    -0.21; C_6     0.22; H_1     0.22; H_2     0.22; H_3     0.22; H_4     0.24; 
@             H_5     0.25; N       0.15; O_a    -0.27; O_b    -0.26; 
 -----------------------------------------------------------------------------
      K-S energy, electrons, error :    -46.975058479527  64.0000229402    2.29D-05
@ 12    -436.599805689        2.35808D-04   -2.64D-09    8
      Virial theorem: -V/T =      2.004357
@      MULPOP C_1    -0.19; C_2    -0.21; C_3    -0.18; C_4    -0.20; C_5    -0.21; C_6     0.22; H_1     0.22; H_2     0.22; H_3     0.22; H_4     0.24; 
@             H_5     0.25; N       0.15; O_a    -0.27; O_b    -0.26; 
 -----------------------------------------------------------------------------
      K-S energy, electrons, error :    -46.975062577455  64.0000229402    2.29D-05
@ 13    -436.599805693        4.11156D-05   -3.32D-09    8
      Virial theorem: -V/T =      2.004357
@      MULPOP C_1    -0.19; C_2    -0.21; C_3    -0.18; C_4    -0.20; C_5    -0.21; C_6     0.22; H_1     0.22; H_2     0.22; H_3     0.22; H_4     0.24; 
@             H_5     0.25; N       0.15; O_a    -0.27; O_b    -0.26; 
 -----------------------------------------------------------------------------
      K-S energy, electrons, error :    -46.975062463021  64.0000229402    2.29D-05
@ 14    -436.599805693        2.62823D-05   -1.12D-10    8
      Virial theorem: -V/T =      2.004357
@      MULPOP C_1    -0.19; C_2    -0.21; C_3    -0.18; C_4    -0.20; C_5    -0.21; C_6     0.22; H_1     0.22; H_2     0.22; H_3     0.22; H_4     0.24; 
@             H_5     0.25; N       0.15; O_a    -0.27; O_b    -0.26; 
 -----------------------------------------------------------------------------
      K-S energy, electrons, error :    -46.975061964813  64.0000229402    2.29D-05
@ 15    -436.599805693        5.28267D-06   -5.55D-11    8

@ *** DIIS converged in  15 iterations !
@     Converged SCF energy, gradient:   -436.599805692767    5.28D-06
    - total time used in SIRFCK :              0.00 seconds


 *** SCF orbital energy analysis ***

 Only the 20 lowest virtual orbital energies printed in each symmetry.

 Number of electrons :   64
 Orbital occupations :   32

 Sym       Kohn-Sham orbital energies

1 A     -19.15231380   -19.15119767   -14.55019962   -10.24886764   -10.22149913
        -10.21821450   -10.21662395   -10.21470608   -10.21152952    -1.22235179
         -1.05028525    -0.88243333    -0.80700724    -0.76414137    -0.70593827
         -0.63605108    -0.60094875    -0.56280816    -0.53342252    -0.51734776
         -0.51404698    -0.47950341    -0.46700127    -0.44467746    -0.39484940
         -0.38433436    -0.38138645    -0.31435100    -0.31340966    -0.29602990
         -0.28925589    -0.27163054    -0.10015904    -0.04804406    -0.01451219
          0.03388012     0.06594048     0.07549616     0.10893582     0.11146241
          0.11283198     0.14275697     0.20831836     0.22626627     0.23410414
          0.24748469     0.26157731     0.31991987     0.33954865     0.34744768
          0.36606742     0.36830475

    E(LUMO) :    -0.10015904 au (symmetry 1)
  - E(HOMO) :    -0.27163054 au (symmetry 1)
  ------------------------------------------
    gap     :     0.17147150 au

 --- Writing SIRIFC interface file

 CPU and wall time for SCF :     348.094     361.179


                       .-----------------------------------.
                       | --- Final results from SIRIUS --- |
                       `-----------------------------------'


@    Spin multiplicity:           1
@    Spatial symmetry:            1 ( irrep  A   in C1  )
@    Total charge of molecule:    0

@    Final DFT energy:           -436.599805692767                 
@    Nuclear repulsion:           404.600051874502
@    Electronic energy:          -841.199857567269

@    Final gradient norm:           0.000005282670

 
     Date and time (Linux)  : Sat Nov 10 16:35:14 2018
     Host name              : Mechanist                               

File label for MO orbitals:  10Nov18   FOCKDIIS

 (Only coefficients > 0.0100 are printed.)

 Molecular orbitals for symmetry species 1  (A  )
 ------------------------------------------------

    Orbital        23       24       25       26       27       28       29
   1 C_1 :1s    -0.0025  -0.0113   0.0069  -0.0007  -0.0015  -0.0004  -0.0003
   2 C_1 :1s    -0.0038  -0.0175   0.0109  -0.0011  -0.0022  -0.0004  -0.0004
   3 C_1 :1s     0.0080   0.0508  -0.0333   0.0040   0.0092  -0.0027   0.0010
   4 C_1 :1s     0.0521   0.0574  -0.0383   0.0052  -0.0120   0.0369   0.0016
   5 C_1 :2px    0.0018   0.0016   0.0084   0.1071  -0.0174   0.0016   0.0206
   6 C_1 :2py    0.0568   0.0655  -0.0131   0.0165   0.0986   0.0293   0.0012
   7 C_1 :2pz   -0.0920   0.0886  -0.1137   0.0142   0.0148  -0.0180  -0.0034
   8 C_1 :2px    0.0024   0.0024   0.0133   0.1674  -0.0275   0.0028   0.0240
   9 C_1 :2py    0.0760   0.0995  -0.0256   0.0243   0.1416   0.0391   0.0015
  10 C_1 :2pz   -0.1313   0.1339  -0.1637   0.0216   0.0286  -0.0216  -0.0051
  11 C_1 :2px    0.0031   0.0019   0.0079   0.1193  -0.0187   0.0023   0.0561
  12 C_1 :2py    0.0773   0.0794  -0.0388   0.0254   0.1176   0.0789  -0.0037
  13 C_1 :2pz   -0.1075   0.0627  -0.1120   0.0095   0.0059  -0.0865   0.0073
  14 C_1 :3d2-   0.0001  -0.0005   0.0013   0.0111  -0.0023   0.0001  -0.0003
  15 C_1 :3d1-  -0.0019   0.0003   0.0047  -0.0054  -0.0262   0.0044   0.0009
  16 C_1 :3d0   -0.0008   0.0102  -0.0079   0.0019   0.0061  -0.0040  -0.0007
  19 C_2 :1s     0.0002  -0.0106  -0.0028   0.0002   0.0012   0.0026   0.0004
  20 C_2 :1s     0.0004  -0.0163  -0.0045   0.0004   0.0018   0.0042   0.0006
  21 C_2 :1s    -0.0007   0.0495   0.0107  -0.0015  -0.0082  -0.0135  -0.0017
  22 C_2 :1s     0.0042   0.0241   0.0408   0.0043   0.0278   0.0245  -0.0101
  23 C_2 :2px    0.0011   0.0028   0.0086   0.0921  -0.0190  -0.0004   0.0093
  24 C_2 :2py    0.0681   0.1087   0.0043  -0.0235  -0.1121  -0.0078  -0.0006
  25 C_2 :2pz    0.0901  -0.0846   0.1109  -0.0167  -0.0335   0.0236   0.0038
  26 C_2 :2px    0.0018   0.0042   0.0134   0.1434  -0.0294  -0.0006   0.0165
  27 C_2 :2py    0.1002   0.1647   0.0029  -0.0342  -0.1637  -0.0118  -0.0012
  28 C_2 :2pz    0.1304  -0.1258   0.1585  -0.0230  -0.0444   0.0330   0.0053
  29 C_2 :2px    0.0003   0.0025   0.0104   0.1112  -0.0233  -0.0005   0.0008
  30 C_2 :2py    0.0375   0.0923   0.0050  -0.0253  -0.1194  -0.0252   0.0013
  31 C_2 :2pz    0.0527  -0.0706   0.0964  -0.0164  -0.0323   0.0113   0.0103
  33 C_2 :3d1-   0.0051   0.0061  -0.0029  -0.0038  -0.0239  -0.0046  -0.0003
  34 C_2 :3d0   -0.0034   0.0091  -0.0184   0.0008  -0.0068  -0.0020  -0.0004
  36 C_2 :3d2+  -0.0013   0.0084  -0.0111   0.0003  -0.0055  -0.0020  -0.0003
  38 C_3 :1s    -0.0070  -0.0068  -0.0105   0.0010   0.0009   0.0038  -0.0001
  39 C_3 :1s     0.0202   0.0197   0.0358  -0.0032  -0.0030  -0.0109   0.0001
  40 C_3 :1s     0.0181   0.0185  -0.0216   0.0019   0.0026  -0.0046  -0.0024
  41 C_3 :2px   -0.0009   0.0001   0.0139   0.0884  -0.0142  -0.0010  -0.0046
  42 C_3 :2py   -0.1093  -0.0265   0.0223   0.0206   0.1321   0.0012   0.0003
  43 C_3 :2pz   -0.0240  -0.0220  -0.1366   0.0187   0.0135  -0.0016  -0.0017
  44 C_3 :2px   -0.0013   0.0002   0.0215   0.1379  -0.0225  -0.0015  -0.0072
  45 C_3 :2py   -0.1584  -0.0375   0.0320   0.0288   0.1865   0.0017   0.0005
  46 C_3 :2pz   -0.0360  -0.0327  -0.2033   0.0278   0.0193  -0.0023  -0.0023
  47 C_3 :2px   -0.0005   0.0003   0.0150   0.1037  -0.0172  -0.0013  -0.0051
  48 C_3 :2py   -0.0949  -0.0137   0.0175   0.0170   0.1197  -0.0005   0.0017
  49 C_3 :2pz   -0.0198  -0.0200  -0.1267   0.0190   0.0119  -0.0056  -0.0051
  51 C_3 :3d1-   0.0048   0.0151   0.0017  -0.0024  -0.0135   0.0002  -0.0000
  52 C_3 :3d0    0.0016   0.0014  -0.0294   0.0027   0.0002  -0.0030  -0.0006
  54 C_3 :3d2+   0.0012   0.0013  -0.0139   0.0014  -0.0002  -0.0022  -0.0005
  55 C_4 :1s     0.0028   0.0115  -0.0037  -0.0002  -0.0027   0.0022   0.0004
  56 C_4 :1s     0.0045   0.0178  -0.0059  -0.0004  -0.0043   0.0036   0.0007
  57 C_4 :1s    -0.0121  -0.0526   0.0155   0.0019   0.0164  -0.0114  -0.0016
  58 C_4 :1s    -0.0249  -0.0412   0.0397  -0.0094  -0.0288   0.0198  -0.0129
  59 C_4 :2px    0.0026   0.0003   0.0074   0.0887  -0.0170  -0.0019  -0.0157
  60 C_4 :2py    0.0377   0.0648  -0.0424  -0.0172  -0.1126   0.0033   0.0000
  61 C_4 :2pz   -0.1044   0.0791   0.1122  -0.0081   0.0045   0.0225   0.0035
  62 C_4 :2px    0.0039   0.0006   0.0120   0.1380  -0.0261  -0.0028  -0.0261
  63 C_4 :2py    0.0535   0.0987  -0.0588  -0.0255  -0.1644   0.0054   0.0004
  64 C_4 :2pz   -0.1529   0.1168   0.1591  -0.0120   0.0028   0.0315   0.0050
  65 C_4 :2px    0.0014   0.0002   0.0086   0.1072  -0.0207  -0.0024  -0.0128
  66 C_4 :2py    0.0134   0.0575  -0.0446  -0.0198  -0.1158   0.0159  -0.0009
  67 C_4 :2pz   -0.0710   0.0651   0.1000  -0.0052   0.0054   0.0162   0.0089
  69 C_4 :3d1-  -0.0028   0.0003   0.0017  -0.0048  -0.0263   0.0042   0.0003
  70 C_4 :3d0    0.0036  -0.0094  -0.0164   0.0026   0.0053  -0.0011  -0.0003
  74 C_5 :1s    -0.0067   0.0140   0.0100  -0.0011   0.0002  -0.0025  -0.0008
  75 C_5 :1s     0.0194  -0.0430  -0.0303   0.0025  -0.0040   0.0046   0.0017
  76 C_5 :1s    -0.0192  -0.0272  -0.0239   0.0032   0.0150   0.0182   0.0147
  77 C_5 :2px    0.0025   0.0036   0.0108   0.0943  -0.0133  -0.0013  -0.0188
  78 C_5 :2py    0.0822   0.1057   0.0285   0.0116   0.0988  -0.0262  -0.0008
  79 C_5 :2pz    0.0979  -0.0816  -0.1136   0.0124   0.0090  -0.0204  -0.0039
  80 C_5 :2px    0.0037   0.0055   0.0167   0.1484  -0.0212  -0.0023  -0.0221
  81 C_5 :2py    0.1205   0.1609   0.0461   0.0163   0.1448  -0.0372  -0.0016
  82 C_5 :2pz    0.1405  -0.1224  -0.1645   0.0172   0.0089  -0.0260  -0.0061
  83 C_5 :2px    0.0036   0.0035   0.0131   0.1067  -0.0148  -0.0021  -0.0464
  84 C_5 :2py    0.0927   0.1030   0.0535   0.0139   0.1115  -0.0553   0.0007
  85 C_5 :2pz    0.1051  -0.0569  -0.1061   0.0185   0.0210  -0.0682   0.0035
  86 C_5 :3d2-  -0.0001   0.0006  -0.0004  -0.0101   0.0024   0.0000  -0.0009
  87 C_5 :3d1-  -0.0098  -0.0072  -0.0084  -0.0035  -0.0247  -0.0027  -0.0006
  91 C_6 :1s     0.0086   0.0084  -0.0132   0.0015   0.0026   0.0177   0.0018
  92 C_6 :1s     0.0137   0.0133  -0.0214   0.0024   0.0043   0.0290   0.0030
  93 C_6 :1s    -0.0408  -0.0388   0.0641  -0.0074  -0.0137  -0.0927  -0.0115
  94 C_6 :1s    -0.0644  -0.0540   0.0948  -0.0154  -0.0340  -0.3006   0.0042
  95 C_6 :2px   -0.0012  -0.0010   0.0098   0.1108  -0.0226   0.0011   0.0034
  96 C_6 :2py   -0.1244  -0.0275  -0.0076  -0.0199  -0.1067  -0.0046  -0.0005
  97 C_6 :2pz   -0.0150  -0.0114   0.0093  -0.0018  -0.0058   0.1000   0.0103
  98 C_6 :2px   -0.0017  -0.0014   0.0156   0.1759  -0.0354   0.0017   0.0061
  99 C_6 :2py   -0.1797  -0.0407  -0.0095  -0.0284  -0.1490  -0.0061  -0.0006
 100 C_6 :2pz   -0.0236  -0.0165   0.0088  -0.0024  -0.0096   0.1688   0.0174
 101 C_6 :2px    0.0003  -0.0002   0.0115   0.1319  -0.0263   0.0023  -0.0019
 102 C_6 :2py   -0.0061   0.0183  -0.0041  -0.0031  -0.0561   0.0171  -0.0064
 103 C_6 :2pz   -0.0050  -0.0130   0.0261  -0.0049  -0.0114   0.1376   0.0026
 105 C_6 :3d1-  -0.0084  -0.0172   0.0020  -0.0025  -0.0129  -0.0004  -0.0000
 106 C_6 :3d0   -0.0017   0.0010  -0.0225   0.0026   0.0019  -0.0131  -0.0014
 107 C_6 :3d1+  -0.0002  -0.0001   0.0010   0.0110  -0.0020  -0.0001   0.0001
 108 C_6 :3d2+  -0.0012  -0.0000  -0.0126   0.0014   0.0008  -0.0064  -0.0010
 109 H_1 :1s    -0.0167  -0.1028   0.0481   0.0106   0.0827   0.0166   0.0017
 110 H_1 :1s    -0.0227  -0.1292   0.0637   0.0140   0.1093   0.0209   0.0030
 111 H_1 :1s    -0.0116  -0.0614   0.0385   0.0077   0.0633   0.0116   0.0019
 112 H_2 :1s    -0.0094  -0.0122  -0.1241   0.0134   0.0060  -0.0060  -0.0018
 113 H_2 :1s    -0.0116  -0.0151  -0.1657   0.0183   0.0080  -0.0092  -0.0014
 114 H_2 :1s    -0.0050  -0.0068  -0.0958   0.0107   0.0048  -0.0038  -0.0011
 115 H_3 :1s    -0.0222   0.0687   0.0270  -0.0184  -0.0896   0.0138   0.0014
 116 H_3 :1s    -0.0244   0.0868   0.0364  -0.0241  -0.1195   0.0171   0.0028
 117 H_3 :1s    -0.0088   0.0408   0.0230  -0.0140  -0.0702   0.0102   0.0018
 118 H_4 :1s     0.0254   0.1005   0.0635   0.0080   0.0797  -0.0013   0.0013
 119 H_4 :1s     0.0334   0.1230   0.0766   0.0108   0.1057   0.0037   0.0026
 120 H_4 :1s     0.0017   0.0535   0.0294   0.0053   0.0552   0.0230  -0.0009
 121 H_5 :1s     0.0004  -0.0722   0.0518  -0.0213  -0.0881  -0.0011   0.0013
 122 H_5 :1s    -0.0021  -0.0877   0.0616  -0.0269  -0.1154   0.0055   0.0034
 123 H_5 :1s     0.0124  -0.0348   0.0224  -0.0114  -0.0579   0.0343   0.0012
 125 N   :1s    -0.0019  -0.0037   0.0133  -0.0017  -0.0022   0.0043   0.0007
 126 N   :1s     0.0055   0.0114  -0.0418   0.0055   0.0072  -0.0118  -0.0004
 127 N   :1s     0.0112   0.0128  -0.0530   0.0065   0.0081  -0.0425  -0.0224
 128 N   :2px    0.0030  -0.0022  -0.0037  -0.0346   0.0055  -0.0003  -0.0013
 129 N   :2py    0.0691  -0.0015   0.0032   0.0021   0.0138   0.0030   0.0004
 130 N   :2pz    0.0059   0.0115  -0.0487   0.0062   0.0080  -0.0587  -0.0069
 131 N   :2px    0.0043  -0.0033  -0.0053  -0.0498   0.0076  -0.0006  -0.0022
 132 N   :2py    0.1111  -0.0036   0.0049   0.0035   0.0203   0.0053   0.0006
 133 N   :2pz    0.0095   0.0175  -0.0709   0.0091   0.0123  -0.0978  -0.0110
 134 N   :2px    0.0075  -0.0028  -0.0052  -0.0525   0.0105   0.0007  -0.0003
 135 N   :2py   -0.0018  -0.0063  -0.0000  -0.0098  -0.0169  -0.0090   0.0002
 136 N   :2pz    0.0082   0.0153  -0.0617   0.0075   0.0076   0.0768  -0.0004
 137 N   :3d2-  -0.0001  -0.0000   0.0008  -0.0006  -0.0000   0.0024  -0.0505
 138 N   :3d1-  -0.0162   0.0032  -0.0016  -0.0018  -0.0071  -0.0008  -0.0001
 139 N   :3d0   -0.0012  -0.0018   0.0087  -0.0012  -0.0009  -0.0454  -0.0048
 140 N   :3d1+  -0.0002  -0.0001   0.0013   0.0138  -0.0028   0.0000  -0.0008
 141 N   :3d2+  -0.0008  -0.0007   0.0025  -0.0003  -0.0003  -0.0324   0.0015
 142 O_a :1s    -0.0118  -0.0026   0.0033  -0.0009  -0.0034   0.0003   0.0000
 143 O_a :1s    -0.0191  -0.0043   0.0054  -0.0015  -0.0056   0.0004   0.0001
 144 O_a :1s     0.0547   0.0143  -0.0164   0.0045   0.0179   0.0019  -0.0001
 145 O_a :1s     0.0646   0.0120  -0.0282   0.0022   0.0075   0.0277   0.0043
 146 O_a :2px    0.0073  -0.0013  -0.0068  -0.0414   0.0100  -0.0206   0.2160
 147 O_a :2py   -0.0652   0.0032   0.0227  -0.0104  -0.0156  -0.0437   0.0053
 148 O_a :2pz   -0.0295  -0.0049  -0.0244   0.0014  -0.0140   0.2100   0.0216
 149 O_a :2px    0.0105  -0.0020  -0.0098  -0.0608   0.0145  -0.0296   0.3095
 150 O_a :2py   -0.0916   0.0048   0.0326  -0.0149  -0.0218  -0.0637   0.0077
 151 O_a :2pz   -0.0416  -0.0071  -0.0356   0.0022  -0.0198   0.2981   0.0304
 152 O_a :2px    0.0084  -0.0013  -0.0087  -0.0524   0.0131  -0.0312   0.3231
 153 O_a :2py   -0.0742   0.0038   0.0255  -0.0138  -0.0214  -0.0518   0.0093
 154 O_a :2pz   -0.0353  -0.0086  -0.0302   0.0004  -0.0238   0.3008   0.0327
 155 O_a :3d2-   0.0009  -0.0002  -0.0008  -0.0044   0.0010  -0.0011   0.0128
 160 O_b :1s     0.0122   0.0022   0.0038   0.0000   0.0021  -0.0002  -0.0000
 161 O_b :1s     0.0198   0.0037   0.0061   0.0000   0.0035  -0.0003  -0.0001
 162 O_b :1s    -0.0573  -0.0129  -0.0183  -0.0000  -0.0113   0.0048   0.0005
 163 O_b :1s    -0.0657  -0.0047  -0.0287   0.0049   0.0008   0.0363   0.0044
 164 O_b :2px    0.0076  -0.0015  -0.0007  -0.0431   0.0093   0.0232  -0.2177
 165 O_b :2py   -0.0629   0.0143  -0.0279  -0.0044  -0.0092   0.0132  -0.0097
 166 O_b :2pz    0.0337   0.0210  -0.0247   0.0045   0.0175   0.1912   0.0202
 167 O_b :2px    0.0110  -0.0023  -0.0012  -0.0630   0.0136   0.0334  -0.3119
 168 O_b :2py   -0.0881   0.0209  -0.0400  -0.0063  -0.0128   0.0200  -0.0140
 169 O_b :2pz    0.0478   0.0308  -0.0362   0.0066   0.0252   0.2704   0.0283
 170 O_b :2px    0.0088  -0.0013  -0.0006  -0.0549   0.0124   0.0350  -0.3259
 171 O_b :2py   -0.0724   0.0153  -0.0322  -0.0069  -0.0138   0.0079  -0.0155
 172 O_b :2pz    0.0401   0.0280  -0.0297   0.0068   0.0273   0.2757   0.0308
 173 O_b :3d2-  -0.0010   0.0003   0.0001   0.0046  -0.0009  -0.0013   0.0135

    Orbital        30       31       32       33       34       35       36
   1 C_1 :1s     0.0087   0.0019   0.0001  -0.0007  -0.0004   0.0001  -0.0153
   2 C_1 :1s     0.0140   0.0030   0.0002  -0.0011  -0.0006   0.0001  -0.0247
   3 C_1 :1s    -0.0411  -0.0088  -0.0004   0.0037   0.0029  -0.0007   0.0692
   4 C_1 :1s    -0.0183  -0.0138  -0.0079   0.0148  -0.0190   0.0204   0.2361
   5 C_1 :2px    0.0200  -0.1080   0.0897  -0.0777   0.1397   0.0540  -0.0017
   6 C_1 :2py    0.0009   0.0029  -0.0019   0.0041  -0.0036   0.0009  -0.0282
   7 C_1 :2pz    0.0279   0.0077   0.0007   0.0003   0.0002  -0.0017  -0.0185
   8 C_1 :2px    0.0307  -0.1675   0.1398  -0.1139   0.2027   0.0769  -0.0031
   9 C_1 :2py    0.0019   0.0045  -0.0030   0.0055  -0.0052   0.0011  -0.0472
  10 C_1 :2pz    0.0466   0.0129   0.0014  -0.0001   0.0003  -0.0024  -0.0266
  11 C_1 :2px    0.0297  -0.1476   0.1395  -0.2019   0.3930   0.1819  -0.0071
  12 C_1 :2py    0.0757   0.0165  -0.0047   0.0184  -0.0247   0.0206  -0.2078
  13 C_1 :2pz   -0.0776  -0.0154  -0.0035  -0.0071  -0.0033  -0.0027  -0.2571
  14 C_1 :3d2-   0.0027  -0.0121  -0.0076   0.0084   0.0007  -0.0227  -0.0005
  15 C_1 :3d1-  -0.0018  -0.0005  -0.0006  -0.0000   0.0003  -0.0001  -0.0136
  17 C_1 :3d1+  -0.0036   0.0111   0.0171  -0.0085  -0.0232   0.0193  -0.0000
  19 C_2 :1s    -0.0047  -0.0009  -0.0005   0.0003   0.0003  -0.0001  -0.0232
  20 C_2 :1s    -0.0074  -0.0015  -0.0007   0.0005   0.0004  -0.0002  -0.0373
  21 C_2 :1s     0.0203   0.0037   0.0021  -0.0016  -0.0017   0.0014   0.0914
  22 C_2 :1s     0.0881   0.0231   0.0097   0.0037   0.0072  -0.0171   0.8245
  23 C_2 :2px   -0.0141   0.0311   0.1533  -0.0338  -0.1535   0.0862   0.0005
  24 C_2 :2py    0.0016  -0.0007  -0.0033   0.0002   0.0029  -0.0009  -0.0539
  25 C_2 :2pz   -0.0208  -0.0053  -0.0004  -0.0003  -0.0011   0.0013   0.0215
  26 C_2 :2px   -0.0215   0.0478   0.2351  -0.0483  -0.2199   0.1237   0.0006
  27 C_2 :2py    0.0030  -0.0010  -0.0048   0.0004   0.0041  -0.0011  -0.0747
  28 C_2 :2pz   -0.0307  -0.0079  -0.0006  -0.0003  -0.0019   0.0019   0.0231
  29 C_2 :2px   -0.0219   0.0441   0.2357  -0.0847  -0.4348   0.2634   0.0009
  30 C_2 :2py   -0.0222  -0.0029  -0.0038   0.0005   0.0159  -0.0191  -0.2496
  31 C_2 :2pz   -0.0668  -0.0165  -0.0025  -0.0037  -0.0074   0.0038   0.0580
  32 C_2 :3d2-  -0.0027   0.0104   0.0023   0.0097   0.0055  -0.0203  -0.0006
  35 C_2 :3d1+  -0.0038   0.0180  -0.0039   0.0163  -0.0184  -0.0190   0.0002
  37 C_3 :1s     0.0003  -0.0001  -0.0003  -0.0004  -0.0004   0.0008  -0.0198
  38 C_3 :1s     0.0005  -0.0002  -0.0005  -0.0007  -0.0007   0.0013  -0.0319
  39 C_3 :1s    -0.0015   0.0006   0.0018   0.0022   0.0027  -0.0048   0.0817
  40 C_3 :1s    -0.0013   0.0001  -0.0005  -0.0019  -0.0033   0.0091   0.5765
  41 C_3 :2px   -0.0356   0.1373   0.0623   0.1009   0.0141  -0.1581  -0.0039
  43 C_3 :2pz    0.0004   0.0056   0.0020   0.0029   0.0000  -0.0048   0.0673
  44 C_3 :2px   -0.0549   0.2114   0.0956   0.1488   0.0201  -0.2228  -0.0053
  45 C_3 :2py    0.0157  -0.0007  -0.0002  -0.0018  -0.0010   0.0044  -0.0060
  46 C_3 :2pz    0.0006   0.0083   0.0029   0.0042   0.0001  -0.0070   0.0922
  47 C_3 :2px   -0.0512   0.2023   0.0967   0.2381   0.0386  -0.4996  -0.0198
  48 C_3 :2py   -0.0133  -0.0064  -0.0008  -0.0061  -0.0029   0.0068  -0.0252
  49 C_3 :2pz   -0.0022   0.0093   0.0063   0.0126   0.0076  -0.0306   0.3939
  50 C_3 :3d2-  -0.0013   0.0084  -0.0212   0.0019   0.0340   0.0042  -0.0000
  53 C_3 :3d1+   0.0015  -0.0048  -0.0027   0.0070   0.0033  -0.0168  -0.0002
  55 C_4 :1s     0.0041   0.0011   0.0005  -0.0001  -0.0005  -0.0004  -0.0232
  56 C_4 :1s     0.0064   0.0017   0.0007  -0.0001  -0.0007  -0.0007  -0.0372
  57 C_4 :1s    -0.0171  -0.0046  -0.0023   0.0002   0.0019   0.0029   0.0908
  58 C_4 :1s    -0.0888  -0.0201  -0.0001   0.0070   0.0153  -0.0156   0.8256
  59 C_4 :2px   -0.0288   0.1251  -0.0925  -0.0136   0.1426   0.1153  -0.0000
  60 C_4 :2py    0.0001  -0.0006   0.0009   0.0003  -0.0017  -0.0019   0.0501
  61 C_4 :2pz    0.0170   0.0053  -0.0011  -0.0010   0.0018   0.0016   0.0251
  62 C_4 :2px   -0.0440   0.1926  -0.1416  -0.0190   0.2045   0.1650  -0.0001
  63 C_4 :2py    0.0009  -0.0010   0.0014   0.0006  -0.0027  -0.0025   0.0690
  64 C_4 :2pz    0.0250   0.0081  -0.0017  -0.0016   0.0027   0.0021   0.0289
  65 C_4 :2px   -0.0439   0.1825  -0.1450  -0.0354   0.4011   0.3597   0.0010
  66 C_4 :2py   -0.0271  -0.0068  -0.0021  -0.0089  -0.0076   0.0025   0.2379
  67 C_4 :2pz    0.0623   0.0164  -0.0036  -0.0030   0.0030   0.0133   0.0715
  68 C_4 :3d2-   0.0028  -0.0102  -0.0076  -0.0106   0.0011   0.0220   0.0003
  69 C_4 :3d1-   0.0001  -0.0002  -0.0010  -0.0011  -0.0008   0.0006  -0.0101
  71 C_4 :3d1+  -0.0020   0.0071   0.0170   0.0166   0.0232  -0.0115  -0.0007
  73 C_5 :1s    -0.0075  -0.0020  -0.0005   0.0003  -0.0002   0.0009  -0.0145
  74 C_5 :1s    -0.0121  -0.0032  -0.0009   0.0004  -0.0003   0.0014  -0.0233
  75 C_5 :1s     0.0369   0.0095   0.0030  -0.0010   0.0013  -0.0051   0.0655
  76 C_5 :1s     0.0307   0.0166  -0.0015  -0.0208  -0.0052  -0.0016   0.2162
  77 C_5 :2px    0.0024   0.0038  -0.1523  -0.0879  -0.1526   0.0161   0.0029
  78 C_5 :2py    0.0030  -0.0006   0.0053   0.0051   0.0047   0.0017   0.0258
  79 C_5 :2pz   -0.0238  -0.0052  -0.0013   0.0007  -0.0018  -0.0001  -0.0176
  80 C_5 :2px    0.0033   0.0052  -0.2356  -0.1269  -0.2201   0.0228   0.0045
  81 C_5 :2py    0.0027  -0.0013   0.0080   0.0070   0.0069   0.0020   0.0449
  82 C_5 :2pz   -0.0420  -0.0097  -0.0024   0.0011  -0.0031  -0.0002  -0.0240
  83 C_5 :2px    0.0064   0.0092  -0.2279  -0.2219  -0.4252   0.0428   0.0136
  84 C_5 :2py    0.0683   0.0102   0.0125   0.0270   0.0194   0.0053   0.1906
  85 C_5 :2pz    0.0855   0.0177  -0.0015   0.0056  -0.0074   0.0134  -0.2382
  86 C_5 :3d2-  -0.0021   0.0105   0.0025  -0.0069  -0.0038   0.0185   0.0000
  87 C_5 :3d1-  -0.0004  -0.0002  -0.0001   0.0001   0.0000  -0.0003   0.0126
  89 C_5 :3d1+  -0.0049   0.0192  -0.0047  -0.0057   0.0202   0.0248   0.0002
  91 C_6 :1s    -0.0010   0.0000  -0.0003  -0.0002  -0.0006  -0.0003  -0.0106
  92 C_6 :1s    -0.0016   0.0000  -0.0004  -0.0003  -0.0010  -0.0005  -0.0171
  93 C_6 :1s     0.0059  -0.0001   0.0015   0.0007   0.0028   0.0021   0.0506
  94 C_6 :1s    -0.0076  -0.0030   0.0078   0.0040   0.0284  -0.0129   0.1296
  95 C_6 :2px    0.0327  -0.1353  -0.0557   0.0690   0.0148  -0.1420  -0.0010
  96 C_6 :2py    0.0167   0.0075   0.0010  -0.0021   0.0003   0.0036   0.0029
  97 C_6 :2pz   -0.0056   0.0014  -0.0017  -0.0003  -0.0013   0.0005  -0.0279
  98 C_6 :2px    0.0511  -0.2145  -0.0892   0.1070   0.0223  -0.2129  -0.0015
  99 C_6 :2py    0.0300   0.0130   0.0021  -0.0040   0.0005   0.0049   0.0039
 100 C_6 :2pz   -0.0097   0.0023  -0.0032  -0.0005  -0.0034   0.0003  -0.0589
 101 C_6 :2px    0.0485  -0.1904  -0.0879   0.1952   0.0147  -0.3918  -0.0036
 102 C_6 :2py    0.1305   0.0223   0.0009   0.0240  -0.0075   0.0305   0.0056
 103 C_6 :2pz    0.0014   0.0032   0.0034   0.0034   0.0103  -0.0064   0.1718
 104 C_6 :3d2-  -0.0019   0.0120  -0.0232   0.0002  -0.0387  -0.0061   0.0007
 106 C_6 :3d0    0.0025   0.0004  -0.0000   0.0001  -0.0004  -0.0000  -0.0226
 107 C_6 :3d1+  -0.0004   0.0001  -0.0004  -0.0353   0.0021  -0.0090  -0.0001
 108 C_6 :3d2+   0.0013   0.0008  -0.0011  -0.0002  -0.0021  -0.0002  -0.0101
 109 H_1 :1s    -0.0044  -0.0016  -0.0007   0.0003   0.0002   0.0007  -0.0256
 110 H_1 :1s    -0.0109  -0.0028  -0.0010   0.0004   0.0018  -0.0008  -0.0648
 111 H_1 :1s    -0.0152  -0.0032  -0.0007   0.0007   0.0016   0.0010  -0.8375
 112 H_2 :1s     0.0009   0.0011   0.0003  -0.0007  -0.0007   0.0019  -0.0216
 113 H_2 :1s     0.0016   0.0013  -0.0002  -0.0027  -0.0024   0.0065  -0.0669
 114 H_2 :1s     0.0014   0.0009  -0.0006  -0.0035  -0.0063   0.0126  -0.8841
 115 H_3 :1s     0.0037   0.0009  -0.0008  -0.0012  -0.0013  -0.0004  -0.0248
 116 H_3 :1s     0.0103   0.0021  -0.0007  -0.0007  -0.0027  -0.0022  -0.0636
 117 H_3 :1s     0.0132   0.0033   0.0005  -0.0002  -0.0043  -0.0038  -0.8260
 118 H_4 :1s     0.0139   0.0025   0.0009  -0.0000  -0.0009   0.0006  -0.0279
 119 H_4 :1s     0.0184   0.0035   0.0008  -0.0021  -0.0022   0.0015  -0.0847
 120 H_4 :1s    -0.0435  -0.0100  -0.0024  -0.0094  -0.0069  -0.0021  -0.5342
 121 H_5 :1s    -0.0165  -0.0040  -0.0008  -0.0006  -0.0007   0.0006  -0.0284
 122 H_5 :1s    -0.0212  -0.0056  -0.0017   0.0003  -0.0027   0.0046  -0.0898
 123 H_5 :1s     0.0407   0.0090  -0.0005   0.0051  -0.0107   0.0160  -0.5679
 124 N   :1s    -0.0009  -0.0001  -0.0001   0.0001   0.0003   0.0001   0.0152
 125 N   :1s    -0.0014  -0.0002  -0.0001   0.0002   0.0005   0.0002   0.0254
 126 N   :1s     0.0040   0.0007   0.0002  -0.0007  -0.0008  -0.0003  -0.0903
 127 N   :1s     0.0166   0.0030   0.0021   0.0001  -0.0090  -0.0057  -0.1133
 128 N   :2px   -0.0026   0.0059   0.0002   0.1784  -0.0321   0.1585   0.0005
 129 N   :2py    0.0127   0.0025   0.0001   0.0082  -0.0015   0.0079   0.0010
 130 N   :2pz    0.0067   0.0007   0.0006  -0.0011  -0.0007  -0.0010  -0.0291
 131 N   :2px   -0.0038   0.0061  -0.0010   0.2814  -0.0499   0.2431   0.0007
 132 N   :2py    0.0273   0.0051   0.0002   0.0135  -0.0025   0.0125   0.0008
 133 N   :2pz    0.0108   0.0011   0.0011  -0.0017  -0.0007  -0.0015  -0.0437
 134 N   :2px    0.0014   0.0148   0.0030   0.2904  -0.0561   0.3128   0.0020
 135 N   :2py   -0.1286  -0.0231  -0.0020   0.0031   0.0000   0.0127   0.0088
 136 N   :2pz   -0.0040   0.0002  -0.0007  -0.0016  -0.0002  -0.0024   0.0382
 138 N   :3d1-  -0.0401  -0.0095  -0.0014   0.0007  -0.0001   0.0012   0.0000
 140 N   :3d1+   0.0062  -0.0173  -0.0073   0.0255  -0.0009  -0.0048   0.0000
 144 O_a :1s    -0.0165  -0.0027  -0.0011  -0.0003  -0.0012   0.0015   0.0304
 145 O_a :1s    -0.0738  -0.0127  -0.0018  -0.0056   0.0047   0.0012   0.0992
 146 O_a :2px   -0.0088   0.0685  -0.0038  -0.1520   0.0085  -0.0897  -0.0014
 147 O_a :2py   -0.1465  -0.0318  -0.0038  -0.0074   0.0013  -0.0033   0.0080
 148 O_a :2pz    0.1468   0.0402   0.0023   0.0001  -0.0007   0.0027   0.0207
 149 O_a :2px   -0.0128   0.0988  -0.0060  -0.2105   0.0077  -0.1216  -0.0019
 150 O_a :2py   -0.2105  -0.0457  -0.0055  -0.0103   0.0018  -0.0044   0.0122
 151 O_a :2pz    0.2150   0.0589   0.0036   0.0000  -0.0012   0.0038   0.0268
 152 O_a :2px   -0.0123   0.1010  -0.0043  -0.2882   0.0309  -0.1924  -0.0041
 153 O_a :2py   -0.2224  -0.0475  -0.0055  -0.0153   0.0044  -0.0073   0.0348
 154 O_a :2pz    0.1906   0.0538   0.0030  -0.0007   0.0008   0.0048   0.0554
 157 O_a :3d0    0.0114   0.0028   0.0003  -0.0000   0.0001  -0.0001   0.0003
 162 O_b :1s     0.0157   0.0037  -0.0010   0.0005  -0.0015  -0.0024   0.0279
 163 O_b :1s     0.0651   0.0123  -0.0000   0.0060   0.0021  -0.0008   0.0838
 164 O_b :2px   -0.0024   0.0344   0.0470  -0.1535   0.0332  -0.0851   0.0010
 165 O_b :2py   -0.1408  -0.0305  -0.0030  -0.0076   0.0002  -0.0036  -0.0106
 166 O_b :2pz   -0.1812  -0.0414  -0.0099   0.0016  -0.0013  -0.0024   0.0177
 167 O_b :2px   -0.0036   0.0493   0.0681  -0.2125   0.0495  -0.1140   0.0013
 168 O_b :2py   -0.2019  -0.0438  -0.0043  -0.0106   0.0003  -0.0049  -0.0154
 169 O_b :2pz   -0.2635  -0.0605  -0.0143   0.0023  -0.0022  -0.0035   0.0222
 170 O_b :2px   -0.0029   0.0513   0.0692  -0.2913   0.0531  -0.1881   0.0026
 171 O_b :2py   -0.2130  -0.0456  -0.0043  -0.0156  -0.0002  -0.0088  -0.0374
 172 O_b :2pz   -0.2432  -0.0562  -0.0139   0.0039  -0.0004  -0.0034   0.0469
 175 O_b :3d0   -0.0117  -0.0027  -0.0004   0.0000   0.0001   0.0001   0.0003

    Orbital        37       38       39       40       41       42
   1 C_1 :1s     0.0092   0.0158  -0.0019   0.0319  -0.0150   0.0259
   2 C_1 :1s     0.0150   0.0257  -0.0019   0.0529  -0.0250   0.0437
   3 C_1 :1s    -0.0301  -0.0682  -0.0410  -0.1706   0.0833  -0.1517
   4 C_1 :1s    -0.5661  -0.3941   1.3310  -0.0712  -0.0824  -0.3105
   5 C_1 :2px    0.0018   0.0037  -0.0103  -0.0665  -0.1278   0.0039
   6 C_1 :2py    0.0589   0.0287  -0.0197   0.0694  -0.0328   0.0079
   7 C_1 :2pz    0.0458   0.0415   0.0010   0.0097  -0.0063  -0.0141
   8 C_1 :2px    0.0029   0.0058  -0.0142  -0.0927  -0.1789   0.0042
   9 C_1 :2py    0.0754   0.0439  -0.0140   0.0897  -0.0440  -0.0229
  10 C_1 :2pz    0.0571   0.0379   0.0099  -0.0015  -0.0019  -0.0279
  11 C_1 :2px    0.0056   0.0166  -0.0317  -0.2801  -0.5827   0.0325
  12 C_1 :2py    0.2408   0.3471   0.5405   1.1226  -0.6082   0.5262
  13 C_1 :2pz    0.4224   0.3787   0.3911   0.5118  -0.3057   0.1122
  14 C_1 :3d2-   0.0000  -0.0002   0.0021   0.0133   0.0239  -0.0020
  15 C_1 :3d1-   0.0085  -0.0022  -0.0011  -0.0044   0.0013  -0.0248
  16 C_1 :3d0   -0.0093  -0.0166   0.0002   0.0078  -0.0028   0.0296
  18 C_1 :3d2+   0.0016  -0.0091  -0.0066  -0.0015   0.0033   0.0226
  19 C_2 :1s     0.0245   0.0062  -0.0088  -0.0334   0.0178  -0.0103
  20 C_2 :1s     0.0395   0.0102  -0.0151  -0.0548   0.0292  -0.0171
  21 C_2 :1s    -0.0923  -0.0327   0.0697   0.1636  -0.0882   0.0669
  22 C_2 :1s    -1.0735  -0.1253  -0.7697   0.3314  -0.1289  -0.1813
  23 C_2 :2px    0.0014  -0.0029   0.0078   0.0581   0.1117  -0.0038
  24 C_2 :2py    0.0731  -0.0334  -0.0134  -0.0331   0.0170  -0.0073
  25 C_2 :2pz   -0.0259   0.0107   0.0250   0.0247  -0.0187  -0.0758
  26 C_2 :2px    0.0016  -0.0044   0.0116   0.0818   0.1558  -0.0053
  27 C_2 :2py    0.0805  -0.0403  -0.0313  -0.0289   0.0151  -0.0095
  28 C_2 :2pz   -0.0292   0.0246   0.0258   0.0410  -0.0278  -0.0812
  29 C_2 :2px    0.0121  -0.0075   0.0177   0.2312   0.4928  -0.0245
  30 C_2 :2py    0.4442  -0.2023  -0.6414  -0.8812   0.5014  -0.3802
  31 C_2 :2pz   -0.2015  -0.0218   0.5172   0.4741  -0.3169  -0.3759
  32 C_2 :3d2-  -0.0002   0.0001  -0.0008  -0.0067  -0.0138   0.0007
  33 C_2 :3d1-  -0.0029   0.0014  -0.0072  -0.0158   0.0089   0.0138
  34 C_2 :3d0    0.0030   0.0032  -0.0003  -0.0139   0.0057  -0.0253
  35 C_2 :3d1+   0.0000  -0.0002   0.0005   0.0054   0.0111   0.0003
  37 C_3 :1s    -0.0060  -0.0317   0.0267   0.0185  -0.0125  -0.0128
  38 C_3 :1s    -0.0095  -0.0511   0.0444   0.0308  -0.0207  -0.0203
  39 C_3 :1s     0.0193   0.1190  -0.1546  -0.1081   0.0696   0.0429
  40 C_3 :1s     0.3098   1.2775   0.2411   0.1194  -0.0077   0.9708
  41 C_3 :2px    0.0002  -0.0013  -0.0064  -0.0552  -0.1059   0.0055
  42 C_3 :2py   -0.0083  -0.0025  -0.0202   0.0281  -0.0101   0.0121
  43 C_3 :2pz    0.0157   0.0877  -0.0233  -0.0093   0.0046  -0.0257
  44 C_3 :2px    0.0003  -0.0011  -0.0091  -0.0793  -0.1504   0.0083
  45 C_3 :2py   -0.0101  -0.0011  -0.0067   0.0151  -0.0026   0.0134
  46 C_3 :2pz    0.0174   0.0967  -0.0266  -0.0098   0.0021  -0.0517
  47 C_3 :2px   -0.0017  -0.0171  -0.0070  -0.2169  -0.4590   0.0278
  48 C_3 :2py   -0.1378   0.0048  -0.1077   0.2743  -0.1194   0.1193
  49 C_3 :2pz    0.0504   0.6189  -1.0315  -0.6526   0.4168  -0.2725
  51 C_3 :3d1-   0.0040  -0.0021  -0.0087   0.0132  -0.0057   0.0007
  52 C_3 :3d0    0.0006   0.0063  -0.0084  -0.0048   0.0036   0.0103
  53 C_3 :3d1+   0.0001  -0.0002  -0.0010  -0.0092  -0.0183   0.0004
  54 C_3 :3d2+  -0.0011  -0.0010  -0.0149  -0.0105   0.0079   0.0138
  55 C_4 :1s    -0.0231   0.0136  -0.0384   0.0031   0.0011  -0.0059
  56 C_4 :1s    -0.0374   0.0220  -0.0635   0.0045   0.0021  -0.0102
  57 C_4 :1s     0.0915  -0.0567   0.2047   0.0077  -0.0173   0.0523
  58 C_4 :1s     0.8698  -0.5232   0.0263  -0.7931   0.3962  -0.3554
  59 C_4 :2px   -0.0008  -0.0011   0.0077   0.0576   0.1057  -0.0040
  60 C_4 :2py    0.0795  -0.0002   0.0332  -0.0033  -0.0017   0.0108
  61 C_4 :2pz    0.0371  -0.0090   0.0232   0.0219  -0.0149  -0.0861
  62 C_4 :2px   -0.0014  -0.0022   0.0109   0.0811   0.1468  -0.0055
  63 C_4 :2py    0.0903   0.0021   0.0339   0.0158  -0.0125   0.0196
  64 C_4 :2pz    0.0487   0.0012   0.0374   0.0210  -0.0145  -0.0988
  65 C_4 :2px   -0.0022   0.0028   0.0380   0.2453   0.4558  -0.0119
  66 C_4 :2py    0.5727   0.0110   1.0946   0.2434  -0.1948   0.3489
  67 C_4 :2pz    0.2809  -0.1543   0.6975   0.3775  -0.2720  -0.5058
  68 C_4 :3d2-  -0.0000   0.0002   0.0005   0.0071   0.0141  -0.0006
  69 C_4 :3d1-  -0.0033  -0.0027   0.0181   0.0013  -0.0026  -0.0179
  70 C_4 :3d0   -0.0027   0.0027  -0.0140   0.0066  -0.0036  -0.0250
  71 C_4 :3d1+  -0.0003   0.0001   0.0016   0.0062   0.0114  -0.0007
  73 C_5 :1s     0.0007   0.0207   0.0391  -0.0141   0.0054   0.0283
  74 C_5 :1s     0.0015   0.0336   0.0652  -0.0222   0.0084   0.0468
  75 C_5 :1s    -0.0201  -0.0874  -0.2190   0.0327  -0.0054  -0.1571
  76 C_5 :1s     0.4295  -0.6534   0.0206   1.1193  -0.6165  -0.3873
  77 C_5 :2px    0.0022  -0.0005  -0.0128  -0.0641  -0.1183   0.0068
  78 C_5 :2py    0.0521  -0.0453  -0.0660   0.0322  -0.0100   0.0322
  79 C_5 :2pz   -0.0201   0.0540   0.0156  -0.0011  -0.0033  -0.0030
  80 C_5 :2px    0.0029  -0.0009  -0.0194  -0.0909  -0.1665   0.0106
  81 C_5 :2py    0.0651  -0.0620  -0.0786   0.0340  -0.0076   0.0732
  82 C_5 :2pz   -0.0271   0.0503   0.0107   0.0096  -0.0107  -0.0094
  83 C_5 :2px    0.0071  -0.0111  -0.0756  -0.2717  -0.4903   0.0204
  84 C_5 :2py    0.0428  -0.4134  -1.3066  -0.1108   0.1411  -0.2143
  85 C_5 :2pz   -0.1665   0.4777   0.6509   0.1987  -0.1579  -0.0231
  86 C_5 :3d2-   0.0003   0.0006  -0.0016  -0.0114  -0.0214  -0.0001
  87 C_5 :3d1-   0.0099   0.0038   0.0075  -0.0025   0.0016   0.0269
  88 C_5 :3d0    0.0024  -0.0152   0.0134  -0.0045   0.0030   0.0333
  90 C_5 :3d2+  -0.0067  -0.0073  -0.0005  -0.0069   0.0030   0.0178
  91 C_6 :1s    -0.0021  -0.0029  -0.0047   0.0026  -0.0025  -0.0482
  92 C_6 :1s    -0.0036  -0.0043  -0.0079   0.0039  -0.0039  -0.0796
  93 C_6 :1s     0.0140   0.0094   0.0470   0.0068  -0.0001   0.2184
  94 C_6 :1s    -0.0061   0.0094  -1.0182  -0.8543   0.5370   0.6974
  95 C_6 :2px    0.0005  -0.0025   0.0124   0.0824   0.1506  -0.0055
  96 C_6 :2py    0.0119   0.0026   0.0252  -0.0288   0.0096   0.0218
  97 C_6 :2pz    0.0175   0.0585   0.0089   0.0191  -0.0161  -0.1499
  98 C_6 :2px    0.0006  -0.0039   0.0185   0.1267   0.2304  -0.0088
  99 C_6 :2py    0.0109   0.0068   0.0458  -0.0408   0.0130   0.0316
 100 C_6 :2pz    0.0304   0.1020   0.0174   0.0340  -0.0277  -0.2480
 101 C_6 :2px   -0.0042  -0.0067   0.0488   0.3139   0.5828  -0.0238
 102 C_6 :2py   -0.1911   0.0479   0.0797   0.0543  -0.0526   0.1083
 103 C_6 :2pz   -0.0996  -0.1624  -0.9912  -0.5874   0.3413  -1.2046
 105 C_6 :3d1-  -0.0194  -0.0007  -0.0025   0.0029   0.0007  -0.0099
 106 C_6 :3d0    0.0051   0.0221   0.0021   0.0071  -0.0060  -0.0523
 107 C_6 :3d1+   0.0000   0.0002  -0.0014  -0.0059  -0.0117   0.0001
 108 C_6 :3d2+   0.0049   0.0172   0.0173   0.0103  -0.0067   0.0040
 110 H_1 :1s     0.0530   0.0170  -0.1009  -0.1263   0.0703  -0.0959
 111 H_1 :1s     1.1794  -0.2107  -0.6200  -1.3595   0.8017   0.0204
 112 H_2 :1s    -0.0034  -0.0112   0.0097   0.0053  -0.0002   0.0169
 113 H_2 :1s    -0.0066  -0.0606   0.1552   0.1052  -0.0584   0.0399
 114 H_2 :1s    -0.2599  -1.5123   1.0606   0.6672  -0.4777   0.0643
 115 H_3 :1s    -0.0104   0.0041  -0.0109  -0.0049   0.0024  -0.0149
 116 H_3 :1s    -0.0656   0.0286  -0.1810  -0.0493   0.0343  -0.1003
 117 H_3 :1s    -1.2874   0.3210  -1.5643  -0.1270   0.1969   0.2516
 118 H_4 :1s    -0.0042   0.0183   0.0188  -0.0034  -0.0022  -0.0411
 119 H_4 :1s     0.0052   0.0942   0.1967   0.0422  -0.0412  -0.1370
 120 H_4 :1s    -0.4224   1.0804   1.7547  -0.4427   0.1418   0.2710
 121 H_5 :1s     0.0152   0.0179  -0.0002   0.0204  -0.0119  -0.0395
 122 H_5 :1s     0.0573   0.0919   0.0953   0.1690  -0.1023  -0.1151
 123 H_5 :1s     0.8409   0.8151   0.0063   1.5618  -0.8155   0.6709
 124 N   :1s    -0.0043  -0.0169  -0.0012  -0.0078   0.0063   0.0648
 125 N   :1s    -0.0071  -0.0282  -0.0025  -0.0131   0.0105   0.1065
 126 N   :1s     0.0259   0.0966   0.0197   0.0472  -0.0374  -0.3237
 127 N   :1s     0.0121   0.1762  -0.2312  -0.0029  -0.0240  -1.5507
 128 N   :2px   -0.0016   0.0014  -0.0076  -0.0397  -0.0747   0.0004
 129 N   :2py    0.0004   0.0006   0.0090  -0.0128  -0.0007   0.0093
 130 N   :2pz    0.0051   0.0172  -0.0233  -0.0013  -0.0025  -0.1358
 131 N   :2px   -0.0023   0.0021  -0.0117  -0.0563  -0.1078   0.0005
 132 N   :2py   -0.0048   0.0028   0.0153  -0.0186  -0.0017   0.0136
 133 N   :2pz    0.0062   0.0209  -0.0323  -0.0020  -0.0036  -0.1863
 134 N   :2px   -0.0051   0.0025  -0.0220  -0.1044  -0.1984  -0.0006
 135 N   :2py    0.0780  -0.0093   0.0830  -0.1267   0.0350   0.0551
 136 N   :2pz   -0.0218  -0.0824  -0.2703  -0.1321   0.0715  -0.5470
 139 N   :3d0   -0.0011  -0.0054   0.0005  -0.0018   0.0013   0.0220
 140 N   :3d1+  -0.0003  -0.0003   0.0017   0.0072   0.0147  -0.0004
 141 N   :3d2+   0.0030   0.0105   0.0084   0.0076  -0.0049  -0.0138
 142 O_a :1s     0.0030   0.0077   0.0024   0.0128  -0.0065  -0.0077
 143 O_a :1s     0.0049   0.0125   0.0039   0.0211  -0.0107  -0.0130
 144 O_a :1s    -0.0137  -0.0370  -0.0122  -0.0652   0.0330   0.0464
 145 O_a :1s    -0.0253  -0.1463  -0.0474  -0.2478   0.1228   0.1162
 146 O_a :2px    0.0014   0.0007   0.0032   0.0198   0.0315  -0.0030
 147 O_a :2py    0.0083  -0.0149  -0.0164   0.0078  -0.0019   0.0620
 148 O_a :2pz   -0.0026  -0.0153   0.0104  -0.0318   0.0147   0.0561
 149 O_a :2px    0.0020   0.0009   0.0044   0.0273   0.0432  -0.0050
 150 O_a :2py    0.0104  -0.0218  -0.0197   0.0134  -0.0046   0.0925
 151 O_a :2pz    0.0001  -0.0188   0.0137  -0.0423   0.0198   0.0825
 152 O_a :2px    0.0029   0.0036   0.0085   0.0488   0.0731  -0.0060
 153 O_a :2py    0.0212  -0.0647  -0.0597  -0.0499   0.0330   0.1643
 154 O_a :2pz   -0.0166  -0.0557   0.0373  -0.1087   0.0496   0.1555
 160 O_b :1s     0.0008   0.0087   0.0132  -0.0002  -0.0015  -0.0055
 161 O_b :1s     0.0014   0.0141   0.0216  -0.0003  -0.0025  -0.0094
 162 O_b :1s    -0.0055  -0.0419  -0.0657   0.0005   0.0084   0.0335
 163 O_b :1s    -0.0404  -0.1489  -0.2483   0.0139   0.0221   0.0656
 164 O_b :2px    0.0007  -0.0025  -0.0001   0.0158   0.0288   0.0021
 165 O_b :2py    0.0156   0.0138  -0.0086   0.0235  -0.0142  -0.0521
 166 O_b :2pz   -0.0051  -0.0177  -0.0255   0.0118  -0.0003   0.0383
 167 O_b :2px    0.0009  -0.0033  -0.0005   0.0210   0.0383   0.0037
 168 O_b :2py    0.0211   0.0203  -0.0171   0.0321  -0.0198  -0.0785
 169 O_b :2pz   -0.0094  -0.0207  -0.0328   0.0155  -0.0002   0.0567
 170 O_b :2px    0.0010  -0.0075  -0.0015   0.0407   0.0741   0.0037
 171 O_b :2py    0.0469   0.0615   0.0577   0.0510  -0.0358  -0.1332
 172 O_b :2pz   -0.0082  -0.0632  -0.0852   0.0413  -0.0043   0.1112

  Total CPU  time used in SIRIUS :  5 minutes 49 seconds
  Total wall time used in SIRIUS :  6 minutes  2 seconds

 
     Date and time (Linux)  : Sat Nov 10 16:35:14 2018
     Host name              : Mechanist                               


                     .---------------------------------------.
                     | End of Wave Function Section (SIRIUS) |
                     `---------------------------------------'


 Center of mass dipole origin  :    0.000000   -0.000000   -0.000000

 Center of mass gauge origin   :    0.000000   -0.000000   -0.000000


                 .------------------------------------------------.
                 | Starting in Static Property Section (ABACUS) - |
                 `------------------------------------------------'


 
     Date and time (Linux)  : Sat Nov 10 16:35:14 2018
     Host name              : Mechanist                               


   ***************************************************************************
   ************************ FINAL RESULTS from ABACUS ************************
   ***************************************************************************


 
     Date and time (Linux)  : Sat Nov 10 16:39:23 2018
     Host name              : Mechanist                               


                             Molecular geometry (au)
                             -----------------------

 C_1       -0.0339161109           -2.2772735396            0.7674812970
 C_2       -0.0361410763           -2.3994752751            3.5260412000
 C_3       -0.0165146621           -0.1153122994            5.0462765923
 C_4        0.0423639911            2.3093228121            3.7785234846
 C_5        0.0641606261            2.3500558695            1.0319018305
 C_6        0.0107888041           -0.0083874144           -0.4105895383
 H_1       -0.0886722387           -4.2269187204            4.4523184736
 H_2       -0.0926805150           -0.2231808325            7.0888202033
 H_3        0.0414282391            4.0528176297            4.8497715498
 H_4        0.1307031726            4.1554157691            0.0645365409
 H_5       -0.0781403248           -4.0654687475           -0.2394543247
 N         -0.0023734148            0.0253844384           -3.1794026697
 O_a        0.0888768968           -2.0173594967           -4.3230276978
 O_b       -0.1043579724            2.1203370862           -4.2232565506





                        Molecular wave function and energy
                        ----------------------------------

     Spatial symmetry   1 ( A   )
     Spin multiplicity  1
     2 * M_S            0
     State number       1
     Total charge       0

     Total energy       -436.5998056928 au (Hartrees)
                        -11880.48505870 eV
                          -1146292.6131 kJ/mol
                           -273970.5098 kcal/mol


                   Scalar Breit-Pauli relativistic corrections
                   -------------------------------------------

     Darwin correction:                          0.8700619185 au
     Mass-velocity correction:                  -1.0915285651 au

     Total relativistic correction:             -0.2214666466 au ( 0.0507%)
     Non-relativistic + relativistic energy:  -436.8212723394 au



      (Note that these corrections are NOT included in the results below.)


[...]
                   `-------------------------------------------'



            *********************************************************
            *** Output from geometry convergence control (MINEND) ***
            *********************************************************


 Energy converged       yes 
 Gradient converged     yes 
 Step converged         no  
 Conditions fullfilled   2
 Required conditions     2
 Totally sym. index      0
 Hessian index           0
 End of optimization    yes 


           :::::::::::::::::::::::::::::::::::::::::::::::::::::::::::
           ::::::::::::::: Optimization Control Center :::::::::::::::
           :::::::::::::::::::::::::::::::::::::::::::::::::::::::::::



                               Final geometry (au)
                               -------------------

 C_1       -0.0368089078           -2.3139315074            0.8981669340
 C_2       -0.0486253883           -2.3736170986            3.5268047174
 C_3       -0.0217392497           -0.1253186890            4.9035401159
 C_4        0.0170821557            2.1976498046            3.6571807013
 C_5        0.0292403449            2.2874372723            1.0294267017
 C_6        0.0020488172            0.0228626825           -0.3057012091
 H_1       -0.0789609323           -4.1778319902            4.4991971257
 H_2       -0.0310116309           -0.1836588759            6.9534572416
 H_3        0.0378178693            3.9436556552            4.7308188768
 H_4        0.0591498340            4.0587949015            0.0090950112
 H_5       -0.0568584717           -4.0244655470           -0.2213598333
 N          0.0148115224            0.1024905565           -3.1033481449
 O_a       -0.0089474148           -1.9155568375           -4.2320788530
 O_b        0.0483268665            2.1814469525           -4.1152589944





                             Optimization information
                             ------------------------

 Iteration number               :      15
 End of optimization            :       T 
 Energy at this geometry is     :    -436.618363
 Energy change from last geom.  :      -0.000000
 Predicted change               :      -0.000000
 Ratio, actual/predicted change :       0.839469
 Norm of gradient               :       0.000044
 Norm of step                   :       0.000708
 Updated trust radius           :       0.001616
 Total Hessian index            :       0



 Center of mass dipole origin  :    0.000498    0.013351    0.029568

 Center of mass gauge origin   :    0.000498    0.013351    0.029568


                 .------------------------------------------------.
                 | Starting in Static Property Section (ABACUS) - |
                 `------------------------------------------------'


 
     Date and time (Linux)  : Sat Nov 10 18:46:15 2018
     Host name              : Mechanist                               


   ***************************************************************************
   ************************ FINAL RESULTS from ABACUS ************************
   ***************************************************************************


 
     Date and time (Linux)  : Sat Nov 10 18:46:16 2018
     Host name              : Mechanist                               


                             Molecular geometry (au)
                             -----------------------

 C_1       -0.0368089078           -2.3139315074            0.8981669340
 C_2       -0.0486253883           -2.3736170986            3.5268047174
 C_3       -0.0217392497           -0.1253186890            4.9035401159
 C_4        0.0170821557            2.1976498046            3.6571807013
 C_5        0.0292403449            2.2874372723            1.0294267017
 C_6        0.0020488172            0.0228626825           -0.3057012091
 H_1       -0.0789609323           -4.1778319902            4.4991971257
 H_2       -0.0310116309           -0.1836588759            6.9534572416
 H_3        0.0378178693            3.9436556552            4.7308188768
 H_4        0.0591498340            4.0587949015            0.0090950112
 H_5       -0.0568584717           -4.0244655470           -0.2213598333
 N          0.0148115224            0.1024905565           -3.1033481449
 O_a       -0.0089474148           -1.9155568375           -4.2320788530
 O_b        0.0483268665            2.1814469525           -4.1152589944





                        Molecular wave function and energy
                        ----------------------------------

     Spatial symmetry   1 ( A   )
     Spin multiplicity  1
     2 * M_S            0
     State number       1
     Total charge       0

     Total energy       -436.6183632786 au (Hartrees)
                        -11880.99003630 eV
                          -1146341.3361 kJ/mol
                           -273982.1549 kcal/mol


                   Scalar Breit-Pauli relativistic corrections
                   -------------------------------------------

     Darwin correction:                          0.8700285840 au
     Mass-velocity correction:                  -1.0915625863 au

     Total relativistic correction:             -0.2215340023 au ( 0.0507%)
     Non-relativistic + relativistic energy:  -436.8398972810 au



      (Note that these corrections are NOT included in the results below.)


                                  Dipole moment
                                  -------------

                 au               Debye          C m (/(10**-30)
              1.797648           4.569164          15.241091


                             Dipole moment components
                             ------------------------

                 au               Debye          C m (/(10**-30)

      x     -0.00821349        -0.02087662        -0.06963690
      y     -0.05113676        -0.12997666        -0.43355548
      z      1.79690133         4.56726732        15.23476390


   Units:   1 a.u. =   2.54175 Debye 
            1 a.u. =   8.47835 (10**-30) C m (SI)




   Interatomic separations (in Angstrom):
   --------------------------------------

            C_1         C_2         C_3         C_4         C_5         C_6   
            ------      ------      ------      ------      ------      ------
 C_1   :    0.000000
 C_2   :    1.391388    0.000000
 C_3   :    2.415349    1.395159    0.000000
 C_4   :    2.798613    2.420244    1.395173    0.000000
 C_5   :    2.436181    2.798561    2.415318    1.391374    0.000000
 C_6   :    1.391184    2.392079    2.757756    2.392113    1.391203    0.000000
 H_1   :    2.145833    1.084705    2.155358    3.403436    3.883264    3.377604
 H_2   :    3.396833    2.152013    1.085220    2.152027    3.396810    3.842975
 H_3   :    3.883317    3.403439    2.155378    1.084706    2.145840    3.377645
 H_4   :    3.405341    3.880057    3.407710    2.167312    1.081864    2.142423
 H_5   :    1.081863    2.167309    3.407720    3.880109    3.405369    2.142446
 N     :    2.473805    3.745366    4.238822    3.745380    2.473813    1.481066
 O_a   :    2.723022    4.113027    4.926314    4.708177    3.563609    2.317170
 O_b   :    3.563611    4.708165    4.926319    4.113040    2.723047    2.317189

            H_1         H_2         H_3         H_4         H_5         N     
            ------      ------      ------      ------      ------      ------
 H_1   :    0.000000
 H_2   :    2.480882    0.000000
 H_3   :    4.299898    2.480909    0.000000
 H_4   :    4.964746    4.306563    2.499397    0.000000
 H_5   :    2.499357    4.306555    4.964799    4.279656    0.000000
 N     :    4.617163    5.324041    4.617181    2.663902    2.663962    0.000000
 O_a   :    4.773107    5.989673    5.666549    3.877287    2.398035    1.223660
 O_b   :    5.666534    5.989681    4.773125    2.397987    3.877351    1.223664

            O_a         O_b   
            ------      ------
 O_a   :    0.000000
 O_b   :    2.169134    0.000000


  Max    interatomic separation is    5.9897 Angstrom (   11.3189 Bohr)
  between atoms   14 and    8, "O_b   " and "H_2   ".

  Min HX interatomic separation is    1.0819 Angstrom (    2.0444 Bohr)

  Min YX interatomic separation is    1.2237 Angstrom (    2.3124 Bohr)


  Bond distances (Angstrom):
  --------------------------

                  atom 1     atom 2       distance
                  ------     ------       --------
  bond distance:  C_2        C_1          1.391388
  bond distance:  C_3        C_2          1.395159
  bond distance:  C_4        C_3          1.395173
  bond distance:  C_5        C_4          1.391374
  bond distance:  C_6        C_1          1.391184
  bond distance:  C_6        C_5          1.391203
  bond distance:  H_1        C_2          1.084705
  bond distance:  H_2        C_3          1.085220
  bond distance:  H_3        C_4          1.084706
  bond distance:  H_4        C_5          1.081864
  bond distance:  H_5        C_1          1.081863
  bond distance:  N          C_6          1.481066
  bond distance:  O_a        N            1.223660
  bond distance:  O_b        N            1.223664


  Bond angles (degrees):
  ----------------------

                  atom 1     atom 2     atom 3         angle
                  ------     ------     ------         -----
  bond angle:     C_2        C_1        C_6          118.558
  bond angle:     C_2        C_1        H_5          121.899
  bond angle:     C_6        C_1        H_5          119.544
  bond angle:     C_1        C_2        C_3          120.175
  bond angle:     C_1        C_2        H_1          119.624
  bond angle:     C_3        C_2        H_1          120.201
  bond angle:     C_2        C_3        C_4          120.308
  bond angle:     C_2        C_3        H_2          119.846
  bond angle:     C_4        C_3        H_2          119.846
  bond angle:     C_3        C_4        C_5          120.173
  bond angle:     C_3        C_4        H_3          120.202
  bond angle:     C_5        C_4        H_3          119.626
  bond angle:     C_4        C_5        C_6          118.560
  bond angle:     C_4        C_5        H_4          121.900
  bond angle:     C_6        C_5        H_4          119.540
  bond angle:     C_1        C_6        C_5          122.226
  bond angle:     C_1        C_6        N            118.888
  bond angle:     C_5        C_6        N            118.887
  bond angle:     C_6        N          O_a          117.584
  bond angle:     C_6        N          O_b          117.585
  bond angle:     O_a        N          O_b          124.831




 CPU time statistics for ABACUS
 ------------------------------

 REST       00:00:01     203 %



  Total CPU  time used in ABACUS:   0.55 seconds
  Total wall time used in ABACUS:   0.56 seconds


                   .-------------------------------------------.
                   | End of Static Property Section (ABACUS) - |
                   `-------------------------------------------'



          <<<<<<<<<<<<<<<<<<<<<<<<<<<<<<<<<<<<<<<<<<<<<<<<<<<<<<<<<<<<<<
          <<<<<<<<<<<<<<<<<<<<  End of Optimization <<<<<<<<<<<<<<<<<<<<
          <<<<<<<<<<<<<<<<<<<<<<<<<<<<<<<<<<<<<<<<<<<<<<<<<<<<<<<<<<<<<<



                              Final geometry (bohr)
                              ---------------------

 C_1       -0.0368089078           -2.3139315074            0.8981669340
 C_2       -0.0486253883           -2.3736170986            3.5268047174
 C_3       -0.0217392497           -0.1253186890            4.9035401159
 C_4        0.0170821557            2.1976498046            3.6571807013
 C_5        0.0292403449            2.2874372723            1.0294267017
 C_6        0.0020488172            0.0228626825           -0.3057012091
 H_1       -0.0789609323           -4.1778319902            4.4991971257
 H_2       -0.0310116309           -0.1836588759            6.9534572416
 H_3        0.0378178693            3.9436556552            4.7308188768
 H_4        0.0591498340            4.0587949015            0.0090950112
 H_5       -0.0568584717           -4.0244655470           -0.2213598333
 N          0.0148115224            0.1024905565           -3.1033481449
 O_a       -0.0089474148           -1.9155568375           -4.2320788530
 O_b        0.0483268665            2.1814469525           -4.1152589944





                      Final geometry (xyz format; angstrom)
                      -------------------------------------

14

C_1     -0.0194784352           -1.2244798211            0.4752894730
C_2     -0.0257314473           -1.2560640758            1.8663046834
C_3     -0.0115039155           -0.0663157943            2.5948416816
C_4      0.0090394875            1.1629461939            1.9352966829
C_5      0.0154733241            1.2104596756            0.5447491508
C_6      0.0010841874            0.0120984105           -0.1617701132
H_1     -0.0417843259           -2.2108134798            2.3808725858
H_2     -0.0164106483           -0.0971880917            3.6796111085
H_3      0.0200123546            2.0868927000            2.5034415380
H_4      0.0313007442            2.1478217652            0.0048128727
H_5     -0.0300882075           -2.1296554531           -0.1171385792
N        0.0078379201            0.0542356668           -1.6422211155
O_a     -0.0047347680           -1.0136690244           -2.2395196833
O_b      0.0255734764            1.1543720138           -2.1777012764



@ Iter     Energy        Change       GradNorm  Index   StepLen    TrustRad #Rej
@ ------------------------------------------------------------------------------
@   0     -436.599806     0.000000     0.137752    0    0.500000    0.500000   0 
@   1     -436.615425    -0.015619     0.058633    0    0.407249*   0.600000   0 
@   2     -436.617403    -0.001978     0.023356    0    0.156853*   0.407249   1 
@   3     -436.617899    -0.000496     0.021885    0    0.156853    0.156853   0 
@   4     -436.618251    -0.000352     0.009176    0    0.122052*   0.156853   0 
@   5     -436.618281    -0.000031     0.007120    0    0.062270*   0.085437   0 
@   6     -436.618352    -0.000070     0.002343    0    0.034059*   0.089668   0 
@   7     -436.618354    -0.000002     0.001732    0    0.021511*   0.023841   0 
@   8     -436.618360    -0.000006     0.000738    0    0.014634*   0.030976   0 
@   9     -436.618361    -0.000001     0.000426    0    0.012761*   0.014634   0 
@  10     -436.618362    -0.000001     0.000549    0    0.011793*   0.018376   0 
@  11     -436.618363    -0.000001     0.000396    0    0.009543*   0.018376   0 
@  12     -436.618363    -0.000000     0.000256    0    0.003465*   0.018376   0 
@  13     -436.618363    -0.000000     0.000143    0    0.002308*   0.018376   0 
@  14     -436.618363    -0.000000     0.000124    0    0.001274*   0.001616   0 
@  15     -436.618363    -0.000000     0.000044    0    0.000708*   0.001616   0 

@  *) Newton step taken.


   Interatomic separations (in Angstrom):
   --------------------------------------

            C_1         C_2         C_3         C_4         C_5         C_6   
            ------      ------      ------      ------      ------      ------
 C_1   :    0.000000
 C_2   :    1.391388    0.000000
 C_3   :    2.415349    1.395159    0.000000
 C_4   :    2.798613    2.420244    1.395173    0.000000
 C_5   :    2.436181    2.798561    2.415318    1.391374    0.000000
 C_6   :    1.391184    2.392079    2.757756    2.392113    1.391203    0.000000
 H_1   :    2.145833    1.084705    2.155358    3.403436    3.883264    3.377604
 H_2   :    3.396833    2.152013    1.085220    2.152027    3.396810    3.842975
 H_3   :    3.883317    3.403439    2.155378    1.084706    2.145840    3.377645
 H_4   :    3.405341    3.880057    3.407710    2.167312    1.081864    2.142423
 H_5   :    1.081863    2.167309    3.407720    3.880109    3.405369    2.142446
 N     :    2.473805    3.745366    4.238822    3.745380    2.473813    1.481066
 O_a   :    2.723022    4.113027    4.926314    4.708177    3.563609    2.317170
 O_b   :    3.563611    4.708165    4.926319    4.113040    2.723047    2.317189

            H_1         H_2         H_3         H_4         H_5         N     
            ------      ------      ------      ------      ------      ------
 H_1   :    0.000000
 H_2   :    2.480882    0.000000
 H_3   :    4.299898    2.480909    0.000000
 H_4   :    4.964746    4.306563    2.499397    0.000000
 H_5   :    2.499357    4.306555    4.964799    4.279656    0.000000
 N     :    4.617163    5.324041    4.617181    2.663902    2.663962    0.000000
 O_a   :    4.773107    5.989673    5.666549    3.877287    2.398035    1.223660
 O_b   :    5.666534    5.989681    4.773125    2.397987    3.877351    1.223664

            O_a         O_b   
            ------      ------
 O_a   :    0.000000
 O_b   :    2.169134    0.000000


  Max    interatomic separation is    5.9897 Angstrom (   11.3189 Bohr)
  between atoms   14 and    8, "O_b   " and "H_2   ".

  Min HX interatomic separation is    1.0819 Angstrom (    2.0444 Bohr)

  Min YX interatomic separation is    1.2237 Angstrom (    2.3124 Bohr)


  Bond distances (Angstrom):
  --------------------------

                  atom 1     atom 2       distance
                  ------     ------       --------
  bond distance:  C_2        C_1          1.391388
  bond distance:  C_3        C_2          1.395159
  bond distance:  C_4        C_3          1.395173
  bond distance:  C_5        C_4          1.391374
  bond distance:  C_6        C_1          1.391184
  bond distance:  C_6        C_5          1.391203
  bond distance:  H_1        C_2          1.084705
  bond distance:  H_2        C_3          1.085220
  bond distance:  H_3        C_4          1.084706
  bond distance:  H_4        C_5          1.081864
  bond distance:  H_5        C_1          1.081863
  bond distance:  N          C_6          1.481066
  bond distance:  O_a        N            1.223660
  bond distance:  O_b        N            1.223664


  Bond angles (degrees):
  ----------------------

                  atom 1     atom 2     atom 3         angle
                  ------     ------     ------         -----
  bond angle:     C_2        C_1        C_6          118.558
  bond angle:     C_2        C_1        H_5          121.899
  bond angle:     C_6        C_1        H_5          119.544
  bond angle:     C_1        C_2        C_3          120.175
  bond angle:     C_1        C_2        H_1          119.624
  bond angle:     C_3        C_2        H_1          120.201
  bond angle:     C_2        C_3        C_4          120.308
  bond angle:     C_2        C_3        H_2          119.846
  bond angle:     C_4        C_3        H_2          119.846
  bond angle:     C_3        C_4        C_5          120.173
  bond angle:     C_3        C_4        H_3          120.202
  bond angle:     C_5        C_4        H_3          119.626
  bond angle:     C_4        C_5        C_6          118.560
  bond angle:     C_4        C_5        H_4          121.900
  bond angle:     C_6        C_5        H_4          119.540
  bond angle:     C_1        C_6        C_5          122.226
  bond angle:     C_1        C_6        N            118.888
  bond angle:     C_5        C_6        N            118.887
  bond angle:     C_6        N          O_a          117.584
  bond angle:     C_6        N          O_b          117.585
  bond angle:     O_a        N          O_b          124.831



@ Geometry converged in 16 iterations!

@ Energy at final geometry is       :    -436.618363 a.u.
@ Energy change during optimization :      -0.018558 a.u.
@                                            -48.723 kJ/mol

  Total CPU  time used in DALTON:   2 hours 14 minutes 11 seconds
  Total wall time used in DALTON:   2 hours 17 minutes 21 seconds

 
     Date and time (Linux)  : Sat Nov 10 18:46:16 2018
     Host name              : Mechanist                               
