

     ************************************************************************
     *************** Dalton - An Electronic Structure Program ***************
     ************************************************************************

    This is output from DALTON release Dalton2018.1 (2019)
         ( Web site: http://daltonprogram.org )

   ----------------------------------------------------------------------------

    NOTE:
     
    Dalton is an experimental code for the evaluation of molecular
    properties using (MC)SCF, DFT, CI, and CC wave functions.
    The authors accept no responsibility for the performance of
    the code or for the correctness of the results.
     
    The code (in whole or part) is provided under a licence and
    is not to be reproduced for further distribution without
    the written permission of the authors or their representatives.
     
    See the home page "http://daltonprogram.org" for further information.
     
    If results obtained with this code are published,
    the appropriate citations would be both of:
     
       K. Aidas, C. Angeli, K. L. Bak, V. Bakken, R. Bast,
       L. Boman, O. Christiansen, R. Cimiraglia, S. Coriani,
       P. Dahle, E. K. Dalskov, U. Ekstroem,
       T. Enevoldsen, J. J. Eriksen, P. Ettenhuber, B. Fernandez,
       L. Ferrighi, H. Fliegl, L. Frediani, K. Hald, A. Halkier,
       C. Haettig, H. Heiberg, T. Helgaker, A. C. Hennum,
       H. Hettema, E. Hjertenaes, S. Hoest, I.-M. Hoeyvik,
       M. F. Iozzi, B. Jansik, H. J. Aa. Jensen, D. Jonsson,
       P. Joergensen, J. Kauczor, S. Kirpekar,
       T. Kjaergaard, W. Klopper, S. Knecht, R. Kobayashi, H. Koch,
       J. Kongsted, A. Krapp, K. Kristensen, A. Ligabue,
       O. B. Lutnaes, J. I. Melo, K. V. Mikkelsen, R. H. Myhre,
       C. Neiss, C. B. Nielsen, P. Norman, J. Olsen,
       J. M. H. Olsen, A. Osted, M. J. Packer, F. Pawlowski,
       T. B. Pedersen, P. F. Provasi, S. Reine, Z. Rinkevicius,
       T. A. Ruden, K. Ruud, V. Rybkin, P. Salek, C. C. M. Samson,
       A. Sanchez de Meras, T. Saue, S. P. A. Sauer,
       B. Schimmelpfennig, K. Sneskov, A. H. Steindal,
       K. O. Sylvester-Hvid, P. R. Taylor, A. M. Teale,
       E. I. Tellgren, D. P. Tew, A. J. Thorvaldsen, L. Thoegersen,
       O. Vahtras, M. A. Watson, D. J. D. Wilson, M. Ziolkowski
       and H. Agren,
       "The Dalton quantum chemistry program system",
       WIREs Comput. Mol. Sci. 2014, 4:269–284 (doi: 10.1002/wcms.1172)
     
    and
     
       Dalton, a molecular electronic structure program,
       Release Dalton2018.1 (2019), see http://daltonprogram.org
   ----------------------------------------------------------------------------

    Authors in alphabetical order (major contribution(s) in parenthesis):

  Kestutis Aidas,           Vilnius University,           Lithuania   (QM/MM)
  Celestino Angeli,         University of Ferrara,        Italy       (NEVPT2)
  Keld L. Bak,              UNI-C,                        Denmark     (AOSOPPA, non-adiabatic coupling, magnetic properties)
  Vebjoern Bakken,          University of Oslo,           Norway      (DALTON; geometry optimizer, symmetry detection)
  Radovan Bast,             UiT The Arctic U. of Norway,  Norway      (DALTON installation and execution frameworks)
  Pablo Baudin,             University of Valencia,       Spain       (Cholesky excitation energies)
  Linus Boman,              NTNU,                         Norway      (Cholesky decomposition and subsystems)
  Ove Christiansen,         Aarhus University,            Denmark     (CC module)
  Renzo Cimiraglia,         University of Ferrara,        Italy       (NEVPT2)
  Sonia Coriani,            Technical Univ. of Denmark,   Denmark     (CC module, MCD in RESPONS)
  Janusz Cukras,            University of Trieste,        Italy       (MChD in RESPONS)
  Paal Dahle,               University of Oslo,           Norway      (Parallelization)
  Erik K. Dalskov,          UNI-C,                        Denmark     (SOPPA)
  Thomas Enevoldsen,        Univ. of Southern Denmark,    Denmark     (SOPPA)
  Janus J. Eriksen,         Aarhus University,            Denmark     (Polarizable embedding model, TDA)
  Rasmus Faber,             University of Copenhagen,     Denmark     (Vib.avg. NMR with SOPPA, parallel AO-SOPPA)
  Tobias Fahleson,          KTH Stockholm,                Sweden      (Damped cubic response)
  Berta Fernandez,          U. of Santiago de Compostela, Spain       (doublet spin, ESR in RESPONS)
  Lara Ferrighi,            Aarhus University,            Denmark     (PCM Cubic response)
  Heike Fliegl,             University of Oslo,           Norway      (CCSD(R12))
  Luca Frediani,            UiT The Arctic U. of Norway,  Norway      (PCM)
  Bin Gao,                  UiT The Arctic U. of Norway,  Norway      (Gen1Int library)
  Christof Haettig,         Ruhr-University Bochum,       Germany     (CC module)
  Kasper Hald,              Aarhus University,            Denmark     (CC module)
  Asger Halkier,            Aarhus University,            Denmark     (CC module)
  Frederik Beyer Hansen,    University of Copenhagen,     Denmark     (Parallel AO-SOPPA)
  Erik D. Hedegaard,        Univ. of Southern Denmark,    Denmark     (Polarizable embedding model, QM/MM)
  Hanne Heiberg,            University of Oslo,           Norway      (geometry analysis, selected one-electron integrals)
  Trygve Helgaker,          University of Oslo,           Norway      (DALTON; ABACUS, ERI, DFT modules, London, and much more)
  Alf Christian Hennum,     University of Oslo,           Norway      (Parity violation)
  Hinne Hettema,            University of Auckland,       New Zealand (quadratic response in RESPONS; SIRIUS supersymmetry)
  Eirik Hjertenaes,         NTNU,                         Norway      (Cholesky decomposition)
  Pi A. B. Haase,           University of Copenhagen,     Denmark     (Triplet AO-SOPPA)
  Maria Francesca Iozzi,    University of Oslo,           Norway      (RPA)
  Christoph Jacob           TU Braunschweig               Germany     (Frozen density embedding model)
  Brano Jansik              Technical Univ. of Ostrava    Czech Rep.  (DFT cubic response)
  Hans Joergen Aa. Jensen,  Univ. of Southern Denmark,    Denmark     (DALTON; SIRIUS, RESPONS, ABACUS modules, London, and much more)
  Dan Jonsson,              UiT The Arctic U. of Norway,  Norway      (cubic response in RESPONS module)
  Poul Joergensen,          Aarhus University,            Denmark     (RESPONS, ABACUS, and CC modules)
  Maciej Kaminski,          University of Warsaw,         Poland      (CPPh in RESPONS)
  Joanna Kauczor,           Linkoeping University,        Sweden      (Complex polarization propagator (CPP) module)
  Sheela Kirpekar,          Univ. of Southern Denmark,    Denmark     (Mass-velocity & Darwin integrals)
  Wim Klopper,              KIT Karlsruhe,                Germany     (R12 code in CC, SIRIUS, and ABACUS modules)
  Stefan Knecht,            ETH Zurich,                   Switzerland (Parallel CI and MCSCF)
  Rika Kobayashi,           Australian National Univ.,    Australia   (DIIS in CC, London in MCSCF)
  Henrik Koch,              NTNU,                         Norway      (CC module, Cholesky decomposition)
  Jacob Kongsted,           Univ. of Southern Denmark,    Denmark     (Polarizable embedding model, QM/MM)
  Andrea Ligabue,           University of Modena,         Italy       (CTOCD, AOSOPPA)
  Nanna H. List             Univ. of Southern Denmark,    Denmark     (Polarizable embedding model)
  Ola B. Lutnaes,           University of Oslo,           Norway      (DFT Hessian)
  Juan I. Melo,             University of Buenos Aires,   Argentina   (LRESC, Relativistic Effects on NMR Shieldings)
  Kurt V. Mikkelsen,        University of Copenhagen,     Denmark     (MC-SCRF and QM/MM)
  Rolf H. Myhre,            NTNU,                         Norway      (Subsystems and CC3)
  Christian Neiss,          Univ. Erlangen-Nuernberg,     Germany     (CCSD(R12))
  Christian B. Nielsen,     University of Copenhagen,     Denmark     (QM/MM)
  Patrick Norman,           KTH Stockholm,                Sweden      (Cubic response and complex frequency response in RESPONS)
  Jeppe Olsen,              Aarhus University,            Denmark     (SIRIUS CI/density modules)
  Jogvan Magnus H. Olsen,   Univ. of Southern Denmark,    Denmark     (Polarizable embedding model, QM/MM)
  Anders Osted,             Copenhagen University,        Denmark     (QM/MM)
  Martin J. Packer,         University of Sheffield,      UK          (SOPPA)
  Filip Pawlowski,          Kazimierz Wielki University,  Poland      (CC3)
  Morten N. Pedersen,       Univ. of Southern Denmark,    Denmark     (Polarizable embedding model)
  Thomas B. Pedersen,       University of Oslo,           Norway      (Cholesky decomposition)
  Patricio F. Provasi,      University of Northeastern,   Argentina   (Analysis of coupling constants in localized orbitals)
  Zilvinas Rinkevicius,     KTH Stockholm,                Sweden      (open-shell DFT, ESR)
  Elias Rudberg,            KTH Stockholm,                Sweden      (DFT grid and basis info)
  Torgeir A. Ruden,         University of Oslo,           Norway      (Numerical derivatives in ABACUS)
  Kenneth Ruud,             UiT The Arctic U. of Norway,  Norway      (DALTON; ABACUS magnetic properties and much more)
  Pawel Salek,              KTH Stockholm,                Sweden      (DALTON; DFT code)
  Claire C. M. Samson       University of Karlsruhe       Germany     (Boys localization, r12 integrals in ERI)
  Alfredo Sanchez de Meras, University of Valencia,       Spain       (CC module, Cholesky decomposition)
  Trond Saue,               Paul Sabatier University,     France      (direct Fock matrix construction)
  Stephan P. A. Sauer,      University of Copenhagen,     Denmark     (SOPPA(CCSD), SOPPA prop., AOSOPPA, vibrational g-factors)
  Andre S. P. Gomes,        CNRS/Universite de Lille,     France      (Frozen density embedding model)
  Bernd Schimmelpfennig,    Forschungszentrum Karlsruhe,  Germany     (AMFI module)
  Kristian Sneskov,         Aarhus University,            Denmark     (Polarizable embedding model, QM/MM)
  Arnfinn H. Steindal,      UiT The Arctic U. of Norway,  Norway      (parallel QM/MM, Polarizable embedding model)
  Casper Steinmann,         Univ. of Southern Denmark,    Denmark     (QFIT, Polarizable embedding model)
  K. O. Sylvester-Hvid,     University of Copenhagen,     Denmark     (MC-SCRF)
  Peter R. Taylor,          VLSCI/Univ. of Melbourne,     Australia   (Symmetry handling ABACUS, integral transformation)
  Andrew M. Teale,          University of Nottingham,     England     (DFT-AC, DFT-D)
  David P. Tew,             University of Bristol,        England     (CCSD(R12))
  Olav Vahtras,             KTH Stockholm,                Sweden      (triplet response, spin-orbit, ESR, TDDFT, open-shell DFT)
  Lucas Visscher,           Vrije Universiteit Amsterdam, Netherlands (Frozen density embedding model)
  David J. Wilson,          La Trobe University,          Australia   (DFT Hessian and DFT magnetizabilities)
  Hans Agren,               KTH Stockholm,                Sweden      (SIRIUS module, RESPONS, MC-SCRF solvation model)
 --------------------------------------------------------------------------------

     Date and time (Linux)  : Sun Feb 23 13:59:26 2020
     Host name              : Lab2-333-NPs                            

 * Work memory size             :  1024000000 =  7.629 gigabytes.

 * Directories for basis set searches:
   1) /home/lab333/dalton/build_2018_atlas
   2) /home/lab333/dalton/build_2018_atlas/basis


Compilation information
-----------------------

 Who compiled             | lab333
 Host                     | Lab2-333-NPs
 System                   | Linux-4.4.0-43-Microsoft
 CMake generator          | Unix Makefiles
 Processor                | x86_64
 64-bit integers          | OFF
 MPI                      | OFF
 Fortran compiler         | /usr/bin/gfortran
 Fortran compiler version | GNU Fortran (Ubuntu 7.3.0-27ubuntu1~18.04) 7.3.0
 C compiler               | /usr/bin/gcc
 C compiler version       | gcc (Ubuntu 7.3.0-27ubuntu1~18.04) 7.3.0
 C++ compiler             | /usr/bin/g++
 C++ compiler version     | g++ (Ubuntu 7.3.0-27ubuntu1~18.04) 7.3.0
 BLAS                     | /usr/lib/x86_64-linux-gnu/libf77blas.so;/usr/lib/x
                          | 86_64-linux-gnu/libcblas.so;/usr/lib/x86_64-linux-
                          | gnu/libatlas.so
 LAPACK                   | /usr/lib/x86_64-linux-gnu/libatlas.so;/usr/lib/x86
                          | _64-linux-gnu/atlas/liblapack.so
 Static linking           | OFF
 Last Git revision        | da625bf48c74028e805616daee31bc5d76b3a20d
 Git branch               | (HEAD detached at Dalton2018.1)
 Configuration time       | 2019-01-18 10:20:51.437510


   Content of the .dal input file
 ----------------------------------

**DALTON INPUT
.RUN RESPONSE
.DIRECT
**WAVE FUNCTIONS
.HF
.MP2
.MCSCF
*CONFIGURATION INPUT
.SPIN MULTIPLICITY
1
.SYMMETRY
1
.INACTIVE ORBITALS
15 10 2 0
.CAS SPACE
1 1 2 3
.ELECTRONS
10
*ORBITAL INPUT
.MOSTART
.HUCKEL
*OPTIMIZATION
.DETERMINANTS
.STATE
1
*CI VECTOR
.PLUS COMBINATIONS
**RESPONSE
*CUBIC
.DIPLEN
.BFREQ
1
0.0584
.CFREQ
1
-0.0584
.DFREQ
1
0.0584
**END OF DALTON INPUT


   Content of the .mol file
 ----------------------------

BASIS
aug-cc-pCVDZ
 nitrobenzene
 Generated by the Dalton Input File Plugin for Avogadro
Atomtypes=4 Angstrom Generators=2 X Y
Charge=6.0 Atoms=4
C        0.0000000000            0.0000000000           -0.0265759623
C       -1.2190534920            0.0000000000           -0.6979856948
C       -1.2105095870            0.0000000000           -2.0897394457
C        0.0000000000            0.0000000000           -2.7841484631
Charge=7.0 Atoms=1
N        0.0000000000            0.0000000000            1.5215958362666666
Charge=8.0 Atoms=1
O       1.0847503743            0.0            2.090244646466667
Charge=1.0 Atoms=3
H       -2.1410602955            0.0000000000           -0.1327964319
H       -2.1492827751            0.0000000000           -2.6311811056
H        0.0000000000            0.0000000000           -3.8683953478


       *******************************************************************
       *********** Output from DALTON general input processing ***********
       *******************************************************************

 --------------------------------------------------------------------------------
   Overall default print level:    0
   Print level for DALTON.STAT:    1

    AO-direct calculation (in sections where implemented)
    HERMIT 1- and 2-electron integral sections will be executed
    "Old" integral transformation used (limited to max 255 basis functions)
    Wave function sections will be executed (SIRIUS module)
    Dynamic molecular response properties section will be executed (RESPONSE module)
 --------------------------------------------------------------------------------


   ****************************************************************************
   *************** Output of molecule and basis set information ***************
   ****************************************************************************


    The two title cards from your ".mol" input:
    ------------------------------------------------------------------------
 1:  nitrobenzene                                                           
 2:  Generated by the Dalton Input File Plugin for Avogadro                 
    ------------------------------------------------------------------------

  Coordinates are entered in Angstrom and converted to atomic units.
          - Conversion factor : 1 bohr = 0.52917721 A

  Atomic type no.    1
  --------------------
  Nuclear charge:   6.00000
  Number of symmetry independent centers:    4
  Number of basis sets to read;    2
  Basis set file used for this atomic type with Z =   6 :
     "/home/lab333/dalton/build_2018_atlas/basis/aug-cc-pCVDZ"

  Atomic type no.    2
  --------------------
  Nuclear charge:   7.00000
  Number of symmetry independent centers:    1
  Number of basis sets to read;    2
  Basis set file used for this atomic type with Z =   7 :
     "/home/lab333/dalton/build_2018_atlas/basis/aug-cc-pCVDZ"

  Atomic type no.    3
  --------------------
  Nuclear charge:   8.00000
  Number of symmetry independent centers:    1
  Number of basis sets to read;    2
  Basis set file used for this atomic type with Z =   8 :
     "/home/lab333/dalton/build_2018_atlas/basis/aug-cc-pCVDZ"

  Atomic type no.    4
  --------------------
  Nuclear charge:   1.00000
  Number of symmetry independent centers:    3
  Number of basis sets to read;    2
  Basis set file used for this atomic type with Z =   1 :
     "/home/lab333/dalton/build_2018_atlas/basis/aug-cc-pCVDZ"


                         SYMGRP: Point group information
                         -------------------------------

@    Point group: C2v

@  * The irrep name for each symmetry:    1: A1     2: B1     3: B2     4: A2 

   * The point group was generated by:

      Reflection in the yz-plane
      Reflection in the xz-plane

   * Group multiplication table

        |  E   C2z  Oxz  Oyz
   -----+--------------------
     E  |  E   C2z  Oxz  Oyz
    C2z | C2z   E   Oyz  Oxz
    Oxz | Oxz  Oyz   E   C2z
    Oyz | Oyz  Oxz  C2z   E 

   * Character table

        |  E   C2z  Oxz  Oyz
   -----+--------------------
    A1  |   1    1    1    1
    B1  |   1   -1    1   -1
    B2  |   1   -1   -1    1
    A2  |   1    1   -1   -1

   * Direct product table

        | A1   B1   B2   A2 
   -----+--------------------
    A1  | A1   B1   B2   A2 
    B1  | B1   A1   A2   B2 
    B2  | B2   A2   A1   B1 
    A2  | A2   B2   B1   A1 


                                 Isotopic Masses
                                 ---------------

                           C          12.000000
                           C   _1     12.000000
                           C   _2     12.000000
                           C   _1     12.000000
                           C   _2     12.000000
                           C          12.000000
                           N          14.003074
                           O   _1     15.994915
                           O   _2     15.994915
                           H   _1      1.007825
                           H   _2      1.007825
                           H   _1      1.007825
                           H   _2      1.007825
                           H           1.007825

                       Total mass:   123.032029 amu
                       Natural abundance:  92.716 %

 Center-of-mass coordinates (a.u.):    0.000000    0.000000   -0.336843


  Atoms and basis sets
  --------------------

  Number of atom types :    4
  Total number of atoms:   14

  Basis set used is "aug-cc-pCVDZ" from the basis set library.

  label    atoms   charge   prim   cont     basis
  ----------------------------------------------------------------------
  C           6    6.0000    39    27      [11s6p2d|5s4p2d]                                   
  N           1    7.0000    39    27      [11s6p2d|5s4p2d]                                   
  O           2    8.0000    39    27      [11s6p2d|5s4p2d]                                   
  H           5    1.0000    11     9      [5s2p|3s2p]                                        
  ----------------------------------------------------------------------
  total:     14   64.0000   406   288
  ----------------------------------------------------------------------
  Spherical harmonic basis used.

  Threshold for neglecting AO integrals:  1.00D-12


  Symmetry Coordinates
  --------------------

  Number of coordinates in each symmetry:    14   14    9    5


   Interatomic separations (in Angstrom):
   --------------------------------------

            C           C   _1      C   _2      C   _1      C   _2      C     
            ------      ------      ------      ------      ------      ------
 C     :    0.000000
 C   _1:    1.391719    0.000000
 C   _2:    1.391719    2.438107    0.000000
 C   _1:    2.392065    1.391780    2.799956    0.000000
 C   _2:    2.392065    2.799956    1.391780    2.421019    0.000000
 C     :    2.757573    2.416230    2.416230    1.395542    1.395542    0.000000
 N     :    1.548172    2.532318    2.532318    3.808816    3.808816    4.305744
 O   _1:    2.378574    3.616869    2.791463    4.768698    4.181875    4.993635
 O   _2:    2.378574    2.791463    3.616869    4.181875    4.768698    4.993635
 H   _1:    2.143694    1.081451    3.407316    2.166922    3.881063    3.407904
 H   _2:    2.143694    3.407316    1.081451    3.881063    2.166922    3.407904
 H   _1:    3.376890    2.145360    3.883675    1.083722    3.403140    2.154719
 H   _2:    3.376890    3.883675    2.145360    3.403140    1.083722    2.154719
 H     :    3.841819    3.396703    3.396703    2.151500    2.151500    1.084247

            N           O   _1      O   _2      H   _1      H   _2      H   _1
            ------      ------      ------      ------      ------      ------
 N     :    0.000000
 O   _1:    1.224763    0.000000
 O   _2:    1.224763    2.169501    0.000000
 H   _1:    2.705763    3.917623    2.461240    0.000000
 H   _2:    2.705763    2.461240    3.917623    4.282121    0.000000
 H   _1:    4.676000    5.722834    4.839947    2.498398    4.964773    0.000000
 H   _2:    4.676000    4.839947    5.722834    4.964773    2.498398    4.298566
 H     :    5.389991    6.056573    6.056573    4.305675    4.305675    2.479943

            H   _2      H     
            ------      ------
 H   _2:    0.000000
 H     :    2.479943    0.000000


  Max    interatomic separation is    6.0566 Angstrom (   11.4453 Bohr)
  between atoms   14 and    8, "H     " and "O   _1".

  Min HX interatomic separation is    1.0815 Angstrom (    2.0436 Bohr)

  Min YX interatomic separation is    1.2248 Angstrom (    2.3145 Bohr)


  Bond distances (Angstrom):
  --------------------------

                  atom 1     atom 2       distance
                  ------     ------       --------
  bond distance:  C   _1     C            1.391719
  bond distance:  C   _2     C            1.391719
  bond distance:  C   _1     C   _1       1.391780
  bond distance:  C   _2     C   _2       1.391780
  bond distance:  C          C   _1       1.395542
  bond distance:  C          C   _2       1.395542
  bond distance:  N          C            1.548172
  bond distance:  O   _1     N            1.224763
  bond distance:  O   _2     N            1.224763
  bond distance:  H   _1     C   _1       1.081451
  bond distance:  H   _2     C   _2       1.081451
  bond distance:  H   _1     C   _1       1.083722
  bond distance:  H   _2     C   _2       1.083722
  bond distance:  H          C            1.084247


  Bond angles (degrees):
  ----------------------

                  atom 1     atom 2     atom 3         angle
                  ------     ------     ------         -----
  bond angle:     C   _1     C          C   _2       122.311
  bond angle:     C   _1     C          N            118.844
  bond angle:     C   _2     C          N            118.844
  bond angle:     C          C   _1     C   _1       118.493
  bond angle:     C          C   _1     H   _1       119.647
  bond angle:     C   _1     C   _1     H   _1       121.860
  bond angle:     C          C   _2     C   _2       118.493
  bond angle:     C          C   _2     H   _2       119.647
  bond angle:     C   _2     C   _2     H   _2       121.860
  bond angle:     C   _1     C   _1     C            120.192
  bond angle:     C   _1     C   _1     H   _1       119.623
  bond angle:     C          C   _1     H   _1       120.185
  bond angle:     C   _2     C   _2     C            120.192
  bond angle:     C   _2     C   _2     H   _2       119.623
  bond angle:     C          C   _2     H   _2       120.185
  bond angle:     C   _1     C          C   _2       120.319
  bond angle:     C   _1     C          H            119.841
  bond angle:     C   _2     C          H            119.841
  bond angle:     C          N          O   _1       117.664
  bond angle:     C          N          O   _2       117.664
  bond angle:     O   _1     N          O   _2       124.671




 Principal moments of inertia (u*A**2) and principal axes
 --------------------------------------------------------

   IA     127.027245          0.000000    0.000000    1.000000
   IB     406.877733          1.000000    0.000000    0.000000
   IC     533.904978          0.000000    1.000000    0.000000


 Rotational constants
 --------------------

@    The molecule is planar.

               A                   B                   C

           3978.5088           1242.0906            946.5711 MHz
            0.132709            0.041432            0.031574 cm-1


@  Nuclear repulsion energy :  408.914276719931 Hartree


  Symmetry Orbitals
  -----------------

  Number of orbitals in each symmetry:         115   91   48   34


  Symmetry  A1 ( 1)

    1     C        1s         1
    2     C        1s         2
    3     C        1s         3
    4     C        1s         4
    5     C        1s         5
    6     C        2pz        8
    7     C        2pz       11
    8     C        2pz       14
    9     C        2pz       17
   10     C        3d0       20
   11     C        3d2+      22
   12     C        3d0       25
   13     C        3d2+      27
   14     C        1s        28 +   29
   15     C        1s        30 +   31
   16     C        1s        32 +   33
   17     C        1s        34 +   35
   18     C        1s        36 +   37
   19     C        2px       38 -   39
   20     C        2pz       42 +   43
   21     C        2px       44 -   45
   22     C        2pz       48 +   49
   23     C        2px       50 -   51
   24     C        2pz       54 +   55
   25     C        2px       56 -   57
   26     C        2pz       60 +   61
   27     C        3d0       66 +   67
   28     C        3d1+      68 -   69
   29     C        3d2+      70 +   71
   30     C        3d0       76 +   77
   31     C        3d1+      78 -   79
   32     C        3d2+      80 +   81
   33     C        1s        82 +   83
   34     C        1s        84 +   85
   35     C        1s        86 +   87
   36     C        1s        88 +   89
   37     C        1s        90 +   91
   38     C        2px       92 -   93
   39     C        2pz       96 +   97
   40     C        2px       98 -   99
   41     C        2pz      102 +  103
   42     C        2px      104 -  105
   43     C        2pz      108 +  109
   44     C        2px      110 -  111
   45     C        2pz      114 +  115
   46     C        3d0      120 +  121
   47     C        3d1+     122 -  123
   48     C        3d2+     124 +  125
   49     C        3d0      130 +  131
   50     C        3d1+     132 -  133
   51     C        3d2+     134 +  135
   52     C        1s       136
   53     C        1s       137
   54     C        1s       138
   55     C        1s       139
   56     C        1s       140
   57     C        2pz      143
   58     C        2pz      146
   59     C        2pz      149
   60     C        2pz      152
   61     C        3d0      155
   62     C        3d2+     157
   63     C        3d0      160
   64     C        3d2+     162
   65     N        1s       163
   66     N        1s       164
   67     N        1s       165
   68     N        1s       166
   69     N        1s       167
   70     N        2pz      170
   71     N        2pz      173
   72     N        2pz      176
   73     N        2pz      179
   74     N        3d0      182
   75     N        3d2+     184
   76     N        3d0      187
   77     N        3d2+     189
   78     O        1s       190 +  191
   79     O        1s       192 +  193
   80     O        1s       194 +  195
   81     O        1s       196 +  197
   82     O        1s       198 +  199
   83     O        2px      200 -  201
   84     O        2pz      204 +  205
   85     O        2px      206 -  207
   86     O        2pz      210 +  211
   87     O        2px      212 -  213
   88     O        2pz      216 +  217
   89     O        2px      218 -  219
   90     O        2pz      222 +  223
   91     O        3d0      228 +  229
   92     O        3d1+     230 -  231
   93     O        3d2+     232 +  233
   94     O        3d0      238 +  239
   95     O        3d1+     240 -  241
   96     O        3d2+     242 +  243
   97     H        1s       244 +  245
   98     H        1s       246 +  247
   99     H        1s       248 +  249
  100     H        2px      250 -  251
  101     H        2pz      254 +  255
  102     H        2px      256 -  257
  103     H        2pz      260 +  261
  104     H        1s       262 +  263
  105     H        1s       264 +  265
  106     H        1s       266 +  267
  107     H        2px      268 -  269
  108     H        2pz      272 +  273
  109     H        2px      274 -  275
  110     H        2pz      278 +  279
  111     H        1s       280
  112     H        1s       281
  113     H        1s       282
  114     H        2pz      285
  115     H        2pz      288


  Symmetry  B1 ( 2)

  116     C        2px        6
  117     C        2px        9
  118     C        2px       12
  119     C        2px       15
  120     C        3d1+      21
  121     C        3d1+      26
  122     C        1s        28 -   29
  123     C        1s        30 -   31
  124     C        1s        32 -   33
  125     C        1s        34 -   35
  126     C        1s        36 -   37
  127     C        2px       38 +   39
  128     C        2pz       42 -   43
  129     C        2px       44 +   45
  130     C        2pz       48 -   49
  131     C        2px       50 +   51
  132     C        2pz       54 -   55
  133     C        2px       56 +   57
  134     C        2pz       60 -   61
  135     C        3d0       66 -   67
  136     C        3d1+      68 +   69
  137     C        3d2+      70 -   71
  138     C        3d0       76 -   77
  139     C        3d1+      78 +   79
  140     C        3d2+      80 -   81
  141     C        1s        82 -   83
  142     C        1s        84 -   85
  143     C        1s        86 -   87
  144     C        1s        88 -   89
  145     C        1s        90 -   91
  146     C        2px       92 +   93
  147     C        2pz       96 -   97
  148     C        2px       98 +   99
  149     C        2pz      102 -  103
  150     C        2px      104 +  105
  151     C        2pz      108 -  109
  152     C        2px      110 +  111
  153     C        2pz      114 -  115
  154     C        3d0      120 -  121
  155     C        3d1+     122 +  123
  156     C        3d2+     124 -  125
  157     C        3d0      130 -  131
  158     C        3d1+     132 +  133
  159     C        3d2+     134 -  135
  160     C        2px      141
  161     C        2px      144
  162     C        2px      147
  163     C        2px      150
  164     C        3d1+     156
  165     C        3d1+     161
  166     N        2px      168
  167     N        2px      171
  168     N        2px      174
  169     N        2px      177
  170     N        3d1+     183
  171     N        3d1+     188
  172     O        1s       190 -  191
  173     O        1s       192 -  193
  174     O        1s       194 -  195
  175     O        1s       196 -  197
  176     O        1s       198 -  199
  177     O        2px      200 +  201
  178     O        2pz      204 -  205
  179     O        2px      206 +  207
  180     O        2pz      210 -  211
  181     O        2px      212 +  213
  182     O        2pz      216 -  217
  183     O        2px      218 +  219
  184     O        2pz      222 -  223
  185     O        3d0      228 -  229
  186     O        3d1+     230 +  231
  187     O        3d2+     232 -  233
  188     O        3d0      238 -  239
  189     O        3d1+     240 +  241
  190     O        3d2+     242 -  243
  191     H        1s       244 -  245
  192     H        1s       246 -  247
  193     H        1s       248 -  249
  194     H        2px      250 +  251
  195     H        2pz      254 -  255
  196     H        2px      256 +  257
  197     H        2pz      260 -  261
  198     H        1s       262 -  263
  199     H        1s       264 -  265
  200     H        1s       266 -  267
  201     H        2px      268 +  269
  202     H        2pz      272 -  273
  203     H        2px      274 +  275
  204     H        2pz      278 -  279
  205     H        2px      283
  206     H        2px      286


  Symmetry  B2 ( 3)

  207     C        2py        7
  208     C        2py       10
  209     C        2py       13
  210     C        2py       16
  211     C        3d1-      19
  212     C        3d1-      24
  213     C        2py       40 +   41
  214     C        2py       46 +   47
  215     C        2py       52 +   53
  216     C        2py       58 +   59
  217     C        3d2-      62 -   63
  218     C        3d1-      64 +   65
  219     C        3d2-      72 -   73
  220     C        3d1-      74 +   75
  221     C        2py       94 +   95
  222     C        2py      100 +  101
  223     C        2py      106 +  107
  224     C        2py      112 +  113
  225     C        3d2-     116 -  117
  226     C        3d1-     118 +  119
  227     C        3d2-     126 -  127
  228     C        3d1-     128 +  129
  229     C        2py      142
  230     C        2py      145
  231     C        2py      148
  232     C        2py      151
  233     C        3d1-     154
  234     C        3d1-     159
  235     N        2py      169
  236     N        2py      172
  237     N        2py      175
  238     N        2py      178
  239     N        3d1-     181
  240     N        3d1-     186
  241     O        2py      202 +  203
  242     O        2py      208 +  209
  243     O        2py      214 +  215
  244     O        2py      220 +  221
  245     O        3d2-     224 -  225
  246     O        3d1-     226 +  227
  247     O        3d2-     234 -  235
  248     O        3d1-     236 +  237
  249     H        2py      252 +  253
  250     H        2py      258 +  259
  251     H        2py      270 +  271
  252     H        2py      276 +  277
  253     H        2py      284
  254     H        2py      287


  Symmetry  A2 ( 4)

  255     C        3d2-      18
  256     C        3d2-      23
  257     C        2py       40 -   41
  258     C        2py       46 -   47
  259     C        2py       52 -   53
  260     C        2py       58 -   59
  261     C        3d2-      62 +   63
  262     C        3d1-      64 -   65
  263     C        3d2-      72 +   73
  264     C        3d1-      74 -   75
  265     C        2py       94 -   95
  266     C        2py      100 -  101
  267     C        2py      106 -  107
  268     C        2py      112 -  113
  269     C        3d2-     116 +  117
  270     C        3d1-     118 -  119
  271     C        3d2-     126 +  127
  272     C        3d1-     128 -  129
  273     C        3d2-     153
  274     C        3d2-     158
  275     N        3d2-     180
  276     N        3d2-     185
  277     O        2py      202 -  203
  278     O        2py      208 -  209
  279     O        2py      214 -  215
  280     O        2py      220 -  221
  281     O        3d2-     224 +  225
  282     O        3d1-     226 -  227
  283     O        3d2-     234 +  235
  284     O        3d1-     236 -  237
  285     H        2py      252 -  253
  286     H        2py      258 -  259
  287     H        2py      270 -  271
  288     H        2py      276 -  277

  Symmetries of electric field:  B1 (2)  B2 (3)  A1 (1)

  Symmetries of magnetic field:  B2 (3)  B1 (2)  A2 (4)


                     .---------------------------------------.
                     | Starting in Integral Section (HERMIT) |
                     `---------------------------------------'



 ***************************************************************************************
 ****************** Output from **INTEGRALS input processing (HERMIT) ******************
 ***************************************************************************************


 - Using defaults, no **INTEGRALS input found

 Default print level:        1

 Calculation of one-electron Hamiltonian integrals.

 Center of mass  (bohr):      0.000000000000      0.000000000000     -0.336842517216
 Operator center (bohr):      0.000000000000      0.000000000000      0.000000000000
 Gauge origin    (bohr):      0.000000000000      0.000000000000      0.000000000000
 Dipole origin   (bohr):      0.000000000000      0.000000000000      0.000000000000


     ************************************************************************
     ************************** Output from HERINT **************************
     ************************************************************************



                      Nuclear contribution to dipole moments
                      --------------------------------------

                 au               Debye          C m (/(10**-30)

      z    -29.51433498       -75.01795196      -250.23295270


  Time used in GABGEN     is       0.11 seconds
  Total CPU  time used in HERMIT:   0.41 seconds
  Total wall time used in HERMIT:   0.40 seconds


                        .----------------------------------.
                        | End of Integral Section (HERMIT) |
                        `----------------------------------'



                   .--------------------------------------------.
                   | Starting in Wave Function Section (SIRIUS) |
                   `--------------------------------------------'


 *** Output from Huckel module :

     Using EWMO model:          F
     Using EHT  model:          T
     Number of Huckel orbitals each symmetry:   24   17    6    3

 Huckel EHT eigenvalues for symmetry :  1
          -20.695599     -15.703578     -11.414439     -11.393789     -11.376176
          -11.362363      -1.732756      -1.556331      -1.196081      -0.940050
           -0.819045      -0.781669      -0.647833      -0.590014      -0.494030
           -0.430680      -0.329833      -0.253842      -0.228278      -0.213934
           -0.206102      -0.179460      -0.166556      -0.160802

 Huckel EHT eigenvalues for symmetry :  2
          -20.700539     -11.396450     -11.377841      -1.393601      -1.205564
           -0.880099      -0.646836      -0.569258      -0.527408      -0.481113
           -0.415095      -0.272036      -0.213520      -0.202864      -0.176295
           -0.165482      -0.163460

 Huckel EHT eigenvalues for symmetry :  3
           -0.794299      -0.675193      -0.464901      -0.386435      -0.282934
           -0.236892

 Huckel EHT eigenvalues for symmetry :  4
           -0.592751      -0.460236      -0.288858

 **********************************************************************
 *SIRIUS* a direct, restricted step, second order MCSCF program       *
 **********************************************************************

 
     Date and time (Linux)  : Sun Feb 23 13:59:27 2020
     Host name              : Lab2-333-NPs                            

 Title lines from ".mol" input file:
      nitrobenzene                                                           
      Generated by the Dalton Input File Plugin for Avogadro                 

 Print level on unit LUPRI =   2 is   0
 Print level on unit LUW4  =   2 is   5

@    MC-SCF optimization.

@    Multi-configurational response calculation.
@              Type: complete active space calculation (CAS).

@    This is a combination run starting with
@              a restricted, closed shell Hartree-Fock calculation
@              an MP2 calculation

 Fock matrices are calculated directly without use of integrals on disk.

 Initial molecular orbitals are obtained according to
 ".MOSTART EHT   " input option

     Wave function specification
     ============================
@    Wave function type        --- MC-SCF ---
@    Number of closed shell electrons          54
@    Number of electrons in active shells      10
@    Total charge of the molecule               0

@    Spin multiplicity and 2 M_S                1         0
@    Total number of symmetries                 4 (point group: C2v)
@    Reference state symmetry                   1 (irrep name : A1 )

     Orbital specifications
     ======================
@    Abelian symmetry species          All |    1    2    3    4
@                                          |  A1   B1   B2   A2 
                                       --- |  ---  ---  ---  ---
@    Inactive orbitals                  27 |   15   10    2    0
@    Active orbitals                     7 |    1    1    2    3
@    Secondary orbitals                254 |   99   80   44   31
@    Total number of orbitals          288 |  115   91   48   34
@    Number of basis functions         288 |  115   91   48   34

      ** Automatic occupation of RHF orbitals **

      -- Initial occupation of symmetries is determined from extended Huckel guess.           
      -- Initial occupation of symmetries is :
@    Occupied SCF orbitals              32 |   16   11    3    2

     Optimization information
     ========================
@    Number of determinants                 115
@    Number of orbital rotations           2762
     ------------------------------------------
@    Total number of variables             2877

     Maximum number of macro iterations      25
     Maximum number of micro iterations     600
     Threshold for MCSCF gradient      1.00D-05
     Number of initial trial vectors          1
     Number of initial CI iterations          3
     Number of simultaneous trial vectors     1

@    This calculation converges to the lowest state for the specified symmetry and spin species.

     Maximum number of NEO/NR iterations  24

    INFORMATION: Switched to "new" integral transformation (from 1988 ;-) )
    because more than 255 basis functions.


 ***********************************************
 ***** DIIS acceleration of SCF iterations *****
 ***********************************************

 C1-DIIS algorithm; max error vectors =    8

 Automatic occupation of symmetries with  64 electrons.

 Iter     Total energy    Error norm  Delta(E)    SCF occupation
 -----------------------------------------------------------------------------
   1  Screening settings (-IFTHRS, JTDIIS, DIFDEN, times)   -8    1    T  2.77D+01  2.77D+01
@  1  -432.288950002       6.40D+00  -4.32D+02    16  11   3   2
      Virial theorem: -V/T =      1.999211
@    MULPOP   C       0.29; C   _1  0.27; C   _2  0.27; C   _1  0.25; C   _2  0.25; C       0.34; N       1.28; O   _1 -1.00; O   _2 -1.00; H   _1 -0.20; 
@             H   _2 -0.20; H   _1 -0.18; H   _2 -0.18; H      -0.19; 
   1  Level shift: doubly occupied orbital energies shifted by -2.00D-01
 -----------------------------------------------------------------------------
   2  Screening settings (-IFTHRS, JTDIIS, DIFDEN, times)   -8    2    T  2.77D+01  2.77D+01
@  2  -433.856965387       2.84D+00  -1.57D+00    16  11   3   2
      Virial theorem: -V/T =      2.001775
@    MULPOP   C       0.89; C   _1  0.36; C   _2  0.36; C   _1  0.37; C   _2  0.37; C       0.38; N       0.31; O   _1 -0.52; O   _2 -0.52; H   _1 -0.40; 
@             H   _2 -0.40; H   _1 -0.40; H   _2 -0.40; H      -0.41; 
   2  Level shift: doubly occupied orbital energies shifted by -1.00D-01
 -----------------------------------------------------------------------------
   3  Screening settings (-IFTHRS, JTDIIS, DIFDEN, times)   -8    3    T  2.76D+01  2.76D+01
@  3  -434.202400348       7.27D-01  -3.45D-01    16  11   3   2
      Virial theorem: -V/T =      2.001161
@    MULPOP   C       1.52; C   _1  0.28; C   _2  0.28; C   _1  0.47; C   _2  0.47; C       0.30; N       0.68; O   _1 -0.89; O   _2 -0.89; H   _1 -0.45; 
@             H   _2 -0.45; H   _1 -0.44; H   _2 -0.44; H      -0.44; 
   3  Level shift: doubly occupied orbital energies shifted by -5.00D-02
 -----------------------------------------------------------------------------
   4  Screening settings (-IFTHRS, JTDIIS, DIFDEN, times)   -8    4    T  2.75D+01  2.75D+01
@  4  -434.228720059       1.81D-01  -2.63D-02    16  11   3   2
      Virial theorem: -V/T =      2.002933
@    MULPOP   C       1.60; C   _1  0.24; C   _2  0.24; C   _1  0.54; C   _2  0.54; C       0.29; N       0.53; O   _1 -0.85; O   _2 -0.85; H   _1 -0.45; 
@             H   _2 -0.45; H   _1 -0.46; H   _2 -0.46; H      -0.46; 
   4  Level shift: doubly occupied orbital energies shifted by -1.25D-02
 -----------------------------------------------------------------------------
   5  Screening settings (-IFTHRS, JTDIIS, DIFDEN, times)  -10    5    F  2.79D+01  2.79D+01
@  5  -434.231360390       5.38D-02  -2.64D-03    16  11   3   2
      Virial theorem: -V/T =      2.002360
@    MULPOP   C       1.64; C   _1  0.22; C   _2  0.22; C   _1  0.53; C   _2  0.53; C       0.27; N       0.52; O   _1 -0.85; O   _2 -0.85; H   _1 -0.44; 
@             H   _2 -0.44; H   _1 -0.44; H   _2 -0.44; H      -0.45; 
 -----------------------------------------------------------------------------
   6  Screening settings (-IFTHRS, JTDIIS, DIFDEN, times)  -10    6    T  2.77D+01  2.77D+01
@  6  -434.231696905       1.47D-02  -3.37D-04    16  11   3   2
      Virial theorem: -V/T =      2.002291
@    MULPOP   C       1.66; C   _1  0.21; C   _2  0.21; C   _1  0.53; C   _2  0.53; C       0.27; N       0.50; O   _1 -0.85; O   _2 -0.85; H   _1 -0.44; 
@             H   _2 -0.44; H   _1 -0.44; H   _2 -0.44; H      -0.44; 
 -----------------------------------------------------------------------------
   7  Screening settings (-IFTHRS, JTDIIS, DIFDEN, times)  -13    7    F  2.81D+01  2.81D+01
@  7  -434.231727143       5.72D-03  -3.02D-05    16  11   3   2
      Virial theorem: -V/T =      2.002323
@    MULPOP   C       1.67; C   _1  0.20; C   _2  0.20; C   _1  0.53; C   _2  0.53; C       0.27; N       0.50; O   _1 -0.85; O   _2 -0.85; H   _1 -0.44; 
@             H   _2 -0.44; H   _1 -0.44; H   _2 -0.44; H      -0.44; 
 -----------------------------------------------------------------------------
   8  Screening settings (-IFTHRS, JTDIIS, DIFDEN, times)  -13    8    T  2.79D+01  2.79D+01
@  8  -434.231731453       2.03D-03  -4.31D-06    16  11   3   2
      Virial theorem: -V/T =      2.002311
@    MULPOP   C       1.67; C   _1  0.20; C   _2  0.20; C   _1  0.53; C   _2  0.53; C       0.27; N       0.50; O   _1 -0.85; O   _2 -0.85; H   _1 -0.44; 
@             H   _2 -0.44; H   _1 -0.44; H   _2 -0.44; H      -0.44; 
 -----------------------------------------------------------------------------
   9  Screening settings (-IFTHRS, JTDIIS, DIFDEN, times)  -13    9    T  2.79D+01  2.79D+01
@  9  -434.231731958       6.82D-04  -5.05D-07    16  11   3   2
      Virial theorem: -V/T =      2.002309
@    MULPOP   C       1.67; C   _1  0.20; C   _2  0.20; C   _1  0.53; C   _2  0.53; C       0.27; N       0.50; O   _1 -0.85; O   _2 -0.85; H   _1 -0.44; 
@             H   _2 -0.44; H   _1 -0.44; H   _2 -0.44; H      -0.44; 
 -----------------------------------------------------------------------------
  10  Screening settings (-IFTHRS, JTDIIS, DIFDEN, times)  -13   10    T  2.79D+01  2.79D+01
@ 10  -434.231732024       2.54D-04  -6.60D-08    16  11   3   2
      Virial theorem: -V/T =      2.002310
@    MULPOP   C       1.67; C   _1  0.20; C   _2  0.20; C   _1  0.53; C   _2  0.53; C       0.27; N       0.50; O   _1 -0.85; O   _2 -0.85; H   _1 -0.44; 
@             H   _2 -0.44; H   _1 -0.44; H   _2 -0.44; H      -0.44; 
 -----------------------------------------------------------------------------
  11  Screening settings (-IFTHRS, JTDIIS, DIFDEN, times)  -13   11    T  2.78D+01  2.78D+01
@ 11  -434.231732038       9.96D-05  -1.37D-08    16  11   3   2
      Virial theorem: -V/T =      2.002310
@    MULPOP   C       1.67; C   _1  0.20; C   _2  0.20; C   _1  0.53; C   _2  0.53; C       0.27; N       0.50; O   _1 -0.85; O   _2 -0.85; H   _1 -0.44; 
@             H   _2 -0.44; H   _1 -0.44; H   _2 -0.44; H      -0.44; 
 -----------------------------------------------------------------------------
  12  Screening settings (-IFTHRS, JTDIIS, DIFDEN, times)  -13   12    T  2.77D+01  2.77D+01
@ 12  -434.231732040       4.42D-05  -2.67D-09    16  11   3   2
      Virial theorem: -V/T =      2.002310
@    MULPOP   C       1.67; C   _1  0.20; C   _2  0.20; C   _1  0.53; C   _2  0.53; C       0.27; N       0.50; O   _1 -0.85; O   _2 -0.85; H   _1 -0.44; 
@             H   _2 -0.44; H   _1 -0.44; H   _2 -0.44; H      -0.44; 
 -----------------------------------------------------------------------------
  13  Screening settings (-IFTHRS, JTDIIS, DIFDEN, times)  -13   13    T  2.78D+01  2.78D+01
@ 13  -434.231732041       2.25D-05  -4.36D-10    16  11   3   2
      Virial theorem: -V/T =      2.002310
@    MULPOP   C       1.67; C   _1  0.20; C   _2  0.20; C   _1  0.53; C   _2  0.53; C       0.27; N       0.50; O   _1 -0.85; O   _2 -0.85; H   _1 -0.44; 
@             H   _2 -0.44; H   _1 -0.44; H   _2 -0.44; H      -0.44; 
 -----------------------------------------------------------------------------
  14  Screening settings (-IFTHRS, JTDIIS, DIFDEN, times)  -13   14    T  2.77D+01  2.77D+01
@ 14  -434.231732041       8.77D-06  -1.70D-10    16  11   3   2
      Virial theorem: -V/T =      2.002310
@    MULPOP   C       1.67; C   _1  0.20; C   _2  0.20; C   _1  0.53; C   _2  0.53; C       0.27; N       0.50; O   _1 -0.85; O   _2 -0.85; H   _1 -0.44; 
@             H   _2 -0.44; H   _1 -0.44; H   _2 -0.44; H      -0.44; 
 -----------------------------------------------------------------------------
  15  Screening settings (-IFTHRS, JTDIIS, DIFDEN, times)  -13   15    T  2.76D+01  2.76D+01
@ 15  -434.231732041       3.46D-06  -1.46D-11    16  11   3   2
      Virial theorem: -V/T =      2.002310
@    MULPOP   C       1.67; C   _1  0.20; C   _2  0.20; C   _1  0.53; C   _2  0.53; C       0.27; N       0.50; O   _1 -0.85; O   _2 -0.85; H   _1 -0.44; 
@             H   _2 -0.44; H   _1 -0.44; H   _2 -0.44; H      -0.44; 
 -----------------------------------------------------------------------------
  16  Screening settings (-IFTHRS, JTDIIS, DIFDEN, times)  -13   16    T  2.75D+01  2.75D+01
@ 16  -434.231732041       1.38D-06  -1.17D-11    16  11   3   2
      Virial theorem: -V/T =      2.002310
@    MULPOP   C       1.67; C   _1  0.20; C   _2  0.20; C   _1  0.53; C   _2  0.53; C       0.27; N       0.50; O   _1 -0.85; O   _2 -0.85; H   _1 -0.44; 
@             H   _2 -0.44; H   _1 -0.44; H   _2 -0.44; H      -0.44; 
 -----------------------------------------------------------------------------
  17  Screening settings (-IFTHRS, JTDIIS, DIFDEN, times)  -13   17    T  2.75D+01  2.75D+01
@ 17  -434.231732041       5.36D-07   6.59D-12    16  11   3   2

@ *** DIIS converged in  17 iterations !
@     Converged SCF energy, gradient:   -434.231732041082    5.36D-07
    - total time used in SIRFCK :              0.00 seconds

 --- Writing SIRIFC interface file

 CPU and wall time for SCF :     472.094     472.145


 ----- Output from SIRIUS MP2 module -----

 Reference: H.J.Aa.Jensen, P.Jorgensen, H.Agren, and J.Olsen,
            J. Chem. Phys. 88, 3834 (1988); 89, 5354 (1988)

 Checking that the closed shell orbitals are canonical Hartree-Fock orbitals

    Number of electrons  :   64
    Closed shell orbitals:   16   11    3    2

 Generating Fock matrix

 Hartree-Fock electronic energy:        -843.146008761016
 Hartree-Fock total      energy:        -434.231732041086

 Hartree-Fock orbital energies, symmetry 1 ( A1 ),   16 occupied SCF orbitals

       -20.61611705   -15.86360010   -11.32745768   -11.28518732   -11.28123743
       -11.27531288    -1.60790380    -1.19993981    -1.08398307    -0.95571368
        -0.83484821    -0.78109586    -0.71102889    -0.65348547    -0.55916082
        -0.48947092     0.02655675     0.04408022     0.06226827     0.10464334
         0.12965354     0.13493133     0.15118103     0.15606557     0.17304947
         0.18061260     0.21392843     0.25418630     0.28768985     0.29181064
         0.31097833     0.32818661     0.34540944     0.35085745     0.36992979
         0.39471344     0.41246740     0.42499654     0.45135780     0.48422993
         0.51154527     0.56046478     0.57999559     0.58705836     0.63001976
         0.64404923     0.65852281     0.67470806     0.72276499     0.73008446
         0.74232030     0.83643960     0.88219715     0.92634274     0.95314943
         0.96377826     1.00536826     1.05421537     1.07411369     1.13402955
         1.27454170     1.35755117     1.37383685     1.45135085     1.49284554
         1.51133263     1.54697024     1.56949497     1.57752356     1.61555891
         1.67287870     1.71356223     1.74798732     1.77842640     1.86298632
         1.94017054     1.95166291     2.00145150     2.01697330     2.11837095
         2.15879967     2.24151025     2.29441775     2.37496048     2.38805002
         2.44117958     2.54075638     2.67189807     2.76840088     2.83364504
         2.87790001     2.95719451     3.03603318     3.13601814     3.26876717
         3.42082501     3.75252771     3.97137476     4.08175673     4.23025189
        19.79146088    20.32318949    20.44517066    20.61838843    23.29374834
        23.35435478    23.42222522    23.79882952    23.89919716    24.11334225
        27.04900296    31.24540678    35.78283041    39.71193589    39.82218907

 Hartree-Fock orbital energies, symmetry 2 ( B1 ),   11 occupied SCF orbitals

       -20.61616963   -11.28522319   -11.27544570    -1.40432525    -1.05661562
        -0.86775954    -0.72933693    -0.66001211    -0.62693308    -0.53336720
        -0.49693896     0.03589382     0.05986085     0.13001693     0.13342956
         0.15340650     0.17404024     0.18335069     0.21365260     0.26217543
         0.28915732     0.31364229     0.33395573     0.35955064     0.36954825
         0.39381140     0.42168969     0.43667928     0.46681879     0.56365630
         0.57762918     0.58772632     0.64801695     0.66881573     0.67754896
         0.69936421     0.75658433     0.76357808     0.82876000     0.84406642
         0.86001295     0.92334483     1.01643467     1.14029137     1.20048046
         1.24629713     1.32370717     1.39461103     1.40806533     1.48517122
         1.56594438     1.58705839     1.61069560     1.63606920     1.68644038
         1.75386132     1.77044642     1.78575275     1.88318215     1.93305762
         1.99146081     2.07343127     2.21929879     2.25657384     2.33803504
         2.34298930     2.38489752     2.52419337     2.56063089     2.79741627
         2.89792192     2.94037522     3.06642534     3.26819549     3.32221883
         3.41192422     3.74620430     3.84495865     4.20201611    20.29501871
        20.47596027    22.88934164    23.33470950    23.38261126    23.93710794
        24.11856381    24.30507346    31.44067534    35.52969974    39.62393943
        40.02348759

 Hartree-Fock orbital energies, symmetry 3 ( B2 ),    3 occupied SCF orbitals

        -0.71499653    -0.53934695    -0.37905336     0.04038710     0.10650759
         0.12318363     0.13884895     0.18487363     0.18991412     0.24343710
         0.31932568     0.33958356     0.37401120     0.44242546     0.53183826
         0.58647169     0.64278324     0.70872712     0.79577353     0.84020685
         0.86901899     0.91724742     0.92522783     0.98168937     1.14137874
         1.27708294     1.28885331     1.45678490     1.47387452     1.61015828
         1.67260761     1.70499534     1.83686512     1.89522401     1.97222360
         2.08107233     2.17570522     2.29503732     2.54097927     2.65635504
         3.66424678     3.78065708    22.53879803    22.68340155    22.82254694
        23.02427345    30.52933480    39.41567325

 Hartree-Fock orbital energies, symmetry 4 ( A2 ),    2 occupied SCF orbitals

        -0.45656699    -0.37066109     0.08482999     0.13111172     0.18579970
         0.29619113     0.41269804     0.49008215     0.54633111     0.65828533
         0.73549901     0.89577610     0.89959246     0.94207799     1.03917345
         1.08263268     1.21093410     1.23489375     1.32659458     1.48313806
         1.67547453     1.68902991     1.86403614     1.99802672     2.11931871
         2.20137755     2.35023778     2.46448760     2.59957653     3.65896092
         3.99865072    22.69125574    22.85711796    39.49087171

    E(LUMO) :     0.02655675   (in symmetry 1)
  - E(HOMO) :    -0.37066109   (in symmetry 4)
  --------------------------
    gap     :     0.39721785

---> (Re)generating AOTWOINT


     ************************************************************************
     ************************** Output from HERINT **************************
     ************************************************************************


 Threshold for neglecting two-electron integrals:  1.00D-12
 HERMIT - Number of two-electron integrals written:   202769805 ( 23.4% )
 HERMIT - Megabytes written:                           3095.314

  Time used in TWOINT     is      39.23 seconds

 2-el. integral transformation level 5: Total CPU and WALL times (sec)     409.938     411.675

 MP2 move   0.999534 electrons to unoccupied HF orbitals


@   Hartree-Fock total energy   :          -434.2317320411
@   + MP2 contribution          :            -1.7280734128
@   = MP2 second order energy   :          -435.9598054539

 Natural orbital occupation numbers, symmetry 1 (irrep A1 )
 Sum =    32.00818996; RHF =    32.00000000; Difference =     0.00818996

         1.99929039     1.99907675     1.99876172     1.99875817     1.99875273
         1.99874942     1.98683887     1.98411840     1.97929479     1.97188198
         1.96877014     1.96794246     1.96535525     1.96210644     1.95499823
         1.94379606     0.04280676     0.03937660     0.02535844     0.02391139
         0.01922144     0.01848637     0.01750561     0.01642949     0.01378621
         0.01266735     0.01167103     0.00983807     0.00855740     0.00782768
         0.00742380     0.00673183     0.00557584     0.00461549     0.00305821
         0.00295070     0.00272295     0.00263467     0.00226392     0.00207428
         0.00183619     0.00167216     0.00164403     0.00132269     0.00122430
         0.00116343     0.00105918     0.00096595     0.00071531     0.00065387
         0.00061222     0.00053436     0.00049921     0.00046276     0.00043934
         0.00041618     0.00041106     0.00038550     0.00037482     0.00035159
         0.00034296     0.00032558     0.00031322     0.00029384     0.00026973
         0.00026313     0.00022371     0.00022174     0.00020736     0.00019685
         0.00018860     0.00018579     0.00017671     0.00017241     0.00016576
         0.00016143     0.00015518     0.00015026     0.00013986     0.00013377
         0.00012744     0.00012475     0.00012210     0.00011096     0.00010451
         0.00009407     0.00007856     0.00007191     0.00005937     0.00005514
         0.00005261     0.00003947     0.00003511     0.00002915     0.00002094
         0.00001720     0.00001438     0.00001301     0.00001189     0.00000945
         0.00000878     0.00000861     0.00000732     0.00000332     0.00000319
         0.00000208     0.00000110     0.00000058     0.00000037     0.00000020
         0.00000016     0.00000000    -0.00000010    -0.00000051    -0.00005650

 Natural orbital occupation numbers, symmetry 2 (irrep B1 )
 Sum =    21.95319227; RHF =    22.00000000; Difference =    -0.04680773

         1.99929028     1.99875739     1.99875112     1.98409592     1.98003237
         1.97270182     1.96224459     1.96036106     1.95475639     1.95420570
         1.94636443     0.03792368     0.02539179     0.02387080     0.01911854
         0.01659601     0.01592959     0.01532401     0.01131259     0.01055727
         0.00910032     0.00766650     0.00591502     0.00538743     0.00519184
         0.00397812     0.00312458     0.00273325     0.00238483     0.00213164
         0.00170475     0.00162581     0.00152426     0.00132120     0.00120656
         0.00103360     0.00098155     0.00070250     0.00064013     0.00056902
         0.00048875     0.00044089     0.00042248     0.00037141     0.00035621
         0.00033465     0.00030563     0.00029298     0.00026979     0.00025732
         0.00024173     0.00021185     0.00019749     0.00018748     0.00018255
         0.00017754     0.00017060     0.00016889     0.00016042     0.00015318
         0.00014402     0.00013406     0.00013017     0.00012577     0.00011896
         0.00011462     0.00009439     0.00008889     0.00007009     0.00005295
         0.00004607     0.00003678     0.00003053     0.00002976     0.00002286
         0.00001538     0.00001405     0.00001134     0.00001068     0.00000845
         0.00000470     0.00000374     0.00000178     0.00000124     0.00000061
         0.00000031     0.00000014    -0.00000002    -0.00000019    -0.00000068
        -0.00001931

 Natural orbital occupation numbers, symmetry 3 (irrep B2 )
 Sum =     6.07773535; RHF =     6.00000000; Difference =     0.07773535

         1.95003502     1.94449240     1.90903406     0.10070612     0.06856611
         0.02971516     0.01073284     0.01030884     0.00874495     0.00790904
         0.00617129     0.00527010     0.00442213     0.00390536     0.00343547
         0.00307662     0.00159276     0.00144645     0.00098447     0.00088710
         0.00087144     0.00066335     0.00058906     0.00049397     0.00047063
         0.00042163     0.00033615     0.00028980     0.00024741     0.00022862
         0.00019872     0.00019615     0.00018986     0.00017703     0.00015341
         0.00013054     0.00012065     0.00011105     0.00009832     0.00008312
         0.00008027     0.00006414     0.00003743     0.00002101     0.00001055
         0.00000827     0.00000524     0.00000122

 Natural orbital occupation numbers, symmetry 4 (irrep A2 )
 Sum =     3.96088243; RHF =     4.00000000; Difference =    -0.03911757

         1.91595360     1.90862855     0.06681885     0.01436158     0.01042060
         0.00933926     0.00789095     0.00570228     0.00510853     0.00407131
         0.00359692     0.00150789     0.00119447     0.00093847     0.00077815
         0.00072714     0.00067326     0.00056471     0.00040696     0.00037134
         0.00033676     0.00029610     0.00022040     0.00019694     0.00016720
         0.00013328     0.00011697     0.00010368     0.00009336     0.00006976
         0.00004923     0.00002076     0.00001766     0.00000549

 Time used for MP2 natural orbitals :     441.578 CPU seconds,     443.309 wall seconds.

 CPU and wall time for MP2 :     441.578     443.309


        SIRIUS MCSCF optimization (SIROPT)
 ================================================


 Fock matrix screening setting for SIRCNO: IFTHRS =    9


 ----- Output from SIRIUS CI module (CICTL) -----




 2-el. integral transformation level 0: Total CPU and WALL times (sec)      99.828      99.871


 --- SIRCI.CIST1: plus combination of all degenerate
                 configurations is used as start vectors.


 (CIST1) 8 lowest diagonal elements:

 Element no. Config.no.    Active energy      Total energy

         1 :         67    -17.2655382142   -434.2126705769
         2 :         69    -16.9741479930   -433.9212803557
         3 :         81    -16.9741479930   -433.9212803557
         4 :         68    -16.9074919159   -433.8546242786
         5 :         74    -16.9074919159   -433.8546242786
         6 :         78    -16.8224004079   -433.7695327706
         7 :         96    -16.8224004079   -433.7695327706
         8 :         71    -16.7683028644   -433.7154352271


 Convergence threshold for CI optimization :     0.00000500



 *** Reached maximum number of CI iterations:    3
              1 CI roots are not converged.


@ Final CI energies and residuals in symmetry 1 (irrep A1 )
@    1     -434.262379451018660       4.55D-03

   --- OUTPUT FROM SIRCNO     Keyword = FD+NO 


 Occupations of CAS natural orbitals:

 Symmetry  1 ( irrep A1  in C2v )

   1.999821860

 Symmetry  2 ( irrep B1  in C2v )

   1.999824563

 Symmetry  3 ( irrep B2  in C2v )

   1.989653155   0.089044229

 Symmetry  4 ( irrep A2  in C2v )

   1.913356213   1.969244401   0.039055580


 --- MACRO ITERATION  1 ---
 --------------------------

 2-el. integral transformation level 3: Total CPU and WALL times (sec)     101.078     101.101

 Fock matrix screening setting for this macro iteration: 10^( -9)

 Total MCSCF energy       :          -434.262379446011209  (MACRO    1)

 - Nuclear repulsion      :           408.914276719930683
 - Inactive energy        :          -825.861409084611978
 - Active energy          :           -17.315247081329929

 Norm of total gradient   :             0.527904215585
 -    of CI gradient      :             0.009103011598
 -    of orbital gradient :             0.527825725038
      Virial theorem: -V/T =      2.001138
@    MULPOP   C       1.34; C   _1  0.34; C   _2  0.34; C   _1  0.51; C   _2  0.51; C       0.34; N       0.34; O   _1 -0.66; O   _2 -0.66; H   _1 -0.49; 
@             H   _2 -0.49; H   _1 -0.47; H   _2 -0.47; H      -0.47; 

 Residual norm when dim(red L) =   4
 NEO root     CSF        orbital          total
    1     0.06943138     0.02815246     0.07492181 converged

 (NEONEX) NEO vector is converged.

   --- OUTPUT FROM SIRCNO     Keyword = FD+NO 


 Occupations of CAS natural orbitals:

 Symmetry  1 ( irrep A1  in C2v )

   1.999821860

 Symmetry  2 ( irrep B1  in C2v )

   1.999824563

 Symmetry  3 ( irrep B2  in C2v )

   1.989653155   0.089044229

 Symmetry  4 ( irrep A2  in C2v )

   1.913356213   1.969244401   0.039055580


 --- MACRO ITERATION  2 ---
 --------------------------

 2-el. integral transformation level 3: Total CPU and WALL times (sec)     101.719     101.754

 Fock matrix screening setting for this macro iteration: 10^( -9)

 Total MCSCF energy       :          -434.282108996812497  (MACRO    2)

 - Nuclear repulsion      :           408.914276719930683
 - Inactive energy        :          -825.852353786366621
 - Active energy          :           -17.344031930376538

 Norm of total gradient   :             0.059958588929
 -    of CI gradient      :             0.052569508465
 -    of orbital gradient :             0.028835380457
      Virial theorem: -V/T =      2.002129
@    MULPOP   C       1.72; C   _1  0.19; C   _2  0.19; C   _1  0.52; C   _2  0.52; C       0.28; N       0.42; O   _1 -0.81; O   _2 -0.81; H   _1 -0.44; 
@             H   _2 -0.44; H   _1 -0.44; H   _2 -0.44; H      -0.44; 

 (SIRNEO) iteration (  2,  7)
 Micro iteration termination criterion met, EVAL(ISTATE+1) = -4.27D-04

   --- OUTPUT FROM SIRCNO     Keyword = FD+NO 


 Occupations of CAS natural orbitals:

 Symmetry  1 ( irrep A1  in C2v )

   1.999712258

 Symmetry  2 ( irrep B1  in C2v )

   1.998669230

 Symmetry  3 ( irrep B2  in C2v )

   1.989288912   0.127597091

 Symmetry  4 ( irrep A2  in C2v )

   1.874409840   1.964152395   0.046170274


 --- MACRO ITERATION  3 ---
 --------------------------

 2-el. integral transformation level 3: Total CPU and WALL times (sec)     101.984     102.015

 Fock matrix screening setting for this macro iteration: 10^( -9)

 Total MCSCF energy       :          -434.284116965643250  (MACRO    3)

 - Nuclear repulsion      :           408.914276719930683
 - Inactive energy        :          -826.350490753471149
 - Active energy          :           -16.847902932102762

 Norm of total gradient   :             0.020659822640
 -    of CI gradient      :             0.011698664828
 -    of orbital gradient :             0.017028491207
      Virial theorem: -V/T =      2.002019
@    MULPOP   C       1.71; C   _1  0.19; C   _2  0.19; C   _1  0.51; C   _2  0.51; C       0.28; N       0.39; O   _1 -0.78; O   _2 -0.78; H   _1 -0.45; 
@             H   _2 -0.45; H   _1 -0.44; H   _2 -0.44; H      -0.45; 

 (SIRNEO) iteration (  3,  7)
 Micro iteration termination criterion met, EVAL(ISTATE+1) = -2.19D-04

   --- OUTPUT FROM SIRCNO     Keyword = FD+NO 


 Occupations of CAS natural orbitals:

 Symmetry  1 ( irrep A1  in C2v )

   1.999744401

 Symmetry  2 ( irrep B1  in C2v )

   1.999041255

 Symmetry  3 ( irrep B2  in C2v )

   1.989359096   0.124846107

 Symmetry  4 ( irrep A2  in C2v )

   1.876764814   1.964652057   0.045592272


 --- MACRO ITERATION  4 ---
 --------------------------

 2-el. integral transformation level 3: Total CPU and WALL times (sec)     102.234     102.282

 Fock matrix screening setting for this macro iteration: 10^( -9)

 Total MCSCF energy       :          -434.284498294533989  (MACRO    4)

 - Nuclear repulsion      :           408.914276719930683
 - Inactive energy        :          -825.478004151794721
 - Active energy          :           -17.720770862669973

 Norm of total gradient   :             0.015111372902
 -    of CI gradient      :             0.011536839095
 -    of orbital gradient :             0.009759863456
      Virial theorem: -V/T =      2.002044
@    MULPOP   C       1.71; C   _1  0.19; C   _2  0.19; C   _1  0.51; C   _2  0.51; C       0.28; N       0.40; O   _1 -0.79; O   _2 -0.79; H   _1 -0.45; 
@             H   _2 -0.45; H   _1 -0.45; H   _2 -0.45; H      -0.45; 

 Residual norm when dim(red L) =  12
 NEO root     CSF        orbital          total
    1     0.00181106     0.00131662     0.00223907 converged

 (NEONEX) NEO vector is converged.

   --- OUTPUT FROM SIRCNO     Keyword = FD+NO 


 Occupations of CAS natural orbitals:

 Symmetry  1 ( irrep A1  in C2v )

   1.999061997

 Symmetry  2 ( irrep B1  in C2v )

   1.999112592

 Symmetry  3 ( irrep B2  in C2v )

   1.989140445   0.126417334

 Symmetry  4 ( irrep A2  in C2v )

   1.875856544   1.964436202   0.045974885


 --- MACRO ITERATION  5 ---
 --------------------------

 2-el. integral transformation level 3: Total CPU and WALL times (sec)     101.875     101.894

 Fock matrix screening setting for this macro iteration: 10^( -9)

 Total MCSCF energy       :          -434.285000791346420  (MACRO    5)

 - Nuclear repulsion      :           408.914276719930683
 - Inactive energy        :          -825.378698495469166
 - Active energy          :           -17.820579015807908

 Norm of total gradient   :             0.006840325624
 -    of CI gradient      :             0.006135319694
 -    of orbital gradient :             0.003024550694
      Virial theorem: -V/T =      2.002030
@    MULPOP   C       1.71; C   _1  0.19; C   _2  0.19; C   _1  0.51; C   _2  0.51; C       0.28; N       0.40; O   _1 -0.79; O   _2 -0.79; H   _1 -0.45; 
@             H   _2 -0.45; H   _1 -0.44; H   _2 -0.44; H      -0.45; 

 Residual norm when dim(red L) =  13
 NEO root     CSF        orbital          total
    1     0.00079369     0.00032735     0.00085855 converged

 (NEONEX) NEO vector is converged.

   --- OUTPUT FROM SIRCNO     Keyword = FD+NO 


 Occupations of CAS natural orbitals:

 Symmetry  1 ( irrep A1  in C2v )

   1.997784232

 Symmetry  2 ( irrep B1  in C2v )

   1.999557521

 Symmetry  3 ( irrep B2  in C2v )

   1.989083328   0.124753814

 Symmetry  4 ( irrep A2  in C2v )

   1.878338288   1.964514101   0.045968716


 --- MACRO ITERATION  6 ---
 --------------------------

 2-el. integral transformation level 3: Total CPU and WALL times (sec)     102.172     102.217

 Fock matrix screening setting for this macro iteration: 10^( -9)

 Total MCSCF energy       :          -434.285015339942561  (MACRO    6)

 - Nuclear repulsion      :           408.914276719930683
 - Inactive energy        :          -825.389015514116636
 - Active energy          :           -17.810276545756601

 Norm of total gradient   :             0.022130173932
 -    of CI gradient      :             0.021866676321
 -    of orbital gradient :             0.003404859016
      Virial theorem: -V/T =      2.002028
@    MULPOP   C       1.71; C   _1  0.19; C   _2  0.19; C   _1  0.51; C   _2  0.51; C       0.28; N       0.40; O   _1 -0.79; O   _2 -0.79; H   _1 -0.45; 
@             H   _2 -0.45; H   _1 -0.44; H   _2 -0.44; H      -0.45; 

 (SIRSTP) Energy difference;
 actual, predicted and ratio:  -0.000014548596141  -0.000356839597911    0.040771

 (SIRSTP) step is too large -- backstep

   --- OUTPUT FROM SIRCNO     Keyword = FD+NO 


 Occupations of CAS natural orbitals:

 Symmetry  1 ( irrep A1  in C2v )

   1.998221563

 Symmetry  2 ( irrep B1  in C2v )

   1.999465639

 Symmetry  3 ( irrep B2  in C2v )

   1.989101224   0.124850737

 Symmetry  4 ( irrep A2  in C2v )

   1.877902626   1.964515172   0.045943038


 Optimization control: Step was too large, we backstep


 --- MACRO ITERATION  6 BACKSTEP NO.  1 ---

 2-el. integral transformation level 3: Total CPU and WALL times (sec)     102.031     102.033

 Fock matrix screening setting for this macro iteration: 10^( -9)

 Total MCSCF energy       :          -434.285163706319338  (MACRO    6)

 - Nuclear repulsion      :           408.914276719930683
 - Inactive energy        :          -825.448753217423473
 - Active energy          :           -17.750687208826555

 Norm of total gradient   :             0.009831037488
 -    of CI gradient      :             0.009629919850
 -    of orbital gradient :             0.001978368462
      Virial theorem: -V/T =      2.002029
@    MULPOP   C       1.71; C   _1  0.19; C   _2  0.19; C   _1  0.51; C   _2  0.51; C       0.28; N       0.40; O   _1 -0.79; O   _2 -0.79; H   _1 -0.45; 
@             H   _2 -0.45; H   _1 -0.44; H   _2 -0.44; H      -0.45; 

 Residual norm when dim(red L) =  10
 NEO root     CSF        orbital          total
    1     0.00066537     0.00050890     0.00083768 converged

 (NEONEX) NEO vector is converged.

   --- OUTPUT FROM SIRCNO     Keyword = FD+NO 


 Occupations of CAS natural orbitals:

 Symmetry  1 ( irrep A1  in C2v )

   1.998566215

 Symmetry  2 ( irrep B1  in C2v )

   1.999460341

 Symmetry  3 ( irrep B2  in C2v )

   1.989105747   0.124300877

 Symmetry  4 ( irrep A2  in C2v )

   1.878114550   1.964541008   0.045911262


 --- MACRO ITERATION  7 ---
 --------------------------

 2-el. integral transformation level 3: Total CPU and WALL times (sec)     101.969     101.996

 Fock matrix screening setting for this macro iteration: 10^( -9)

 Total MCSCF energy       :          -434.285197896019895  (MACRO    7)

 - Nuclear repulsion      :           408.914276719930683
 - Inactive energy        :          -825.330829624185299
 - Active energy          :           -17.868644991765283

 Norm of total gradient   :             0.001146304386
 -    of CI gradient      :             0.001029521102
 -    of orbital gradient :             0.000504083370
      Virial theorem: -V/T =      2.002032
@    MULPOP   C       1.71; C   _1  0.19; C   _2  0.19; C   _1  0.51; C   _2  0.51; C       0.28; N       0.40; O   _1 -0.79; O   _2 -0.79; H   _1 -0.45; 
@             H   _2 -0.45; H   _1 -0.44; H   _2 -0.44; H      -0.45; 

 Residual norm when dim(red L) =  19
 NEO root     CSF        orbital          total
    1     0.00000503     0.00000614     0.00000794 converged

 (NEONEX) NEO vector is converged.

   --- OUTPUT FROM SIRCNO     Keyword = FD+NO 


 Occupations of CAS natural orbitals:

 Symmetry  1 ( irrep A1  in C2v )

   1.998590693

 Symmetry  2 ( irrep B1  in C2v )

   1.999467837

 Symmetry  3 ( irrep B2  in C2v )

   1.989081049   0.124724030

 Symmetry  4 ( irrep A2  in C2v )

   1.877660019   1.964460340   0.046016032


 --- MACRO ITERATION  8 ---
 --------------------------

 2-el. integral transformation level 3: Total CPU and WALL times (sec)     102.047     102.063

 Fock matrix screening setting for this macro iteration: 10^( -9)

 Total MCSCF energy       :          -434.285198476151152  (MACRO    8)

 - Nuclear repulsion      :           408.914276719930683
 - Inactive energy        :          -825.329976835461821
 - Active energy          :           -17.869498360619989

 Norm of total gradient   :             0.000019062624
 -    of CI gradient      :             0.000017902943
 -    of orbital gradient :             0.000006547385
      Virial theorem: -V/T =      2.002030
@    MULPOP   C       1.71; C   _1  0.19; C   _2  0.19; C   _1  0.51; C   _2  0.51; C       0.28; N       0.40; O   _1 -0.79; O   _2 -0.79; H   _1 -0.45; 
@             H   _2 -0.45; H   _1 -0.44; H   _2 -0.44; H      -0.45; 

 Residual norm when dim(red L) =   4
 NEO root     CSF        orbital          total
    1     0.00000553     0.00000470     0.00000726 converged

 (NEONEX) NEO vector is converged.

   --- OUTPUT FROM SIRCNO     Keyword = FD+NO 


 Occupations of CAS natural orbitals:

 Symmetry  1 ( irrep A1  in C2v )

   1.998591353

 Symmetry  2 ( irrep B1  in C2v )

   1.999467870

 Symmetry  3 ( irrep B2  in C2v )

   1.989081044   0.124722054

 Symmetry  4 ( irrep A2  in C2v )

   1.877661298   1.964459932   0.046016450


 --- MACRO ITERATION  9 ---
 --------------------------

 2-el. integral transformation level 3: Total CPU and WALL times (sec)     102.125     102.171

 Fock matrix screening setting for this macro iteration: 10^( -9)

 Total MCSCF energy       :          -434.285198476283654  (MACRO    9)

 - Nuclear repulsion      :           408.914276719930683
 - Inactive energy        :          -825.329911260065728
 - Active energy          :           -17.869563936148634

 Norm of total gradient   :             0.000007257916
 -    of CI gradient      :             0.000005534756
 -    of orbital gradient :             0.000004695085
      Virial theorem: -V/T =      2.002030
@    MULPOP   C       1.71; C   _1  0.19; C   _2  0.19; C   _1  0.51; C   _2  0.51; C       0.28; N       0.40; O   _1 -0.79; O   _2 -0.79; H   _1 -0.45; 
@             H   _2 -0.45; H   _1 -0.44; H   _2 -0.44; H      -0.45; 

 (SIRSTP) Energy difference;
 actual, predicted and ratio:  -0.000000000132502  -0.000000000116974    1.132748
 Close to convergence, ratio set to one.

 *** Optimization control: MCSCF converged ***
     Number of macro iterations used            9
     Number of micro iterations used           65
     Total number of CPU seconds used      3734.44

 CPU and wall time for MCSCF :    3734.438    3735.149


                     .----------------------------------------.
                     | --- SIRIUS OPTIMIZATION STATISTICS --- |
                     `----------------------------------------'


 
     Date and time (Linux)  : Sun Feb 23 15:16:57 2020
     Host name              : Lab2-333-NPs                            


  ITER ITMIC     EMCSCF           GRDNRM        RATIO      STPLNG
 ---------------------------------------------------------------------
    1    3   -434.262379446011   0.5279042156  0.000000   0.1911403471
    2    7   -434.282108996812   0.0599585889  0.999890   0.6964095011
    3    7   -434.284116965643   0.0206598226  0.856706   0.6986135808
    4   10   -434.284498294534   0.0151113729  0.818784   0.7565910511
    5   11   -434.285000791346   0.0068403256  0.766722   0.7622628682
    6    0   -434.285015339943   0.0221301739  0.040771   0.0000000000
    6    8   -434.285163706319   0.0098310375  0.546585   0.1090460343
    7   17   -434.285197896020   0.0011463044  1.043984   0.0122096270
    8    2   -434.285198476151   0.0000190626  1.006915   0.0001337993
    9    0   -434.285198476284   0.0000072579  1.000000   0.0000000000


  ITER  INDGCM  GCIMAX      GCINRM     INDGOM  GOBMAX      GOBNRM      GRDNRM
[...]

       No.  Residual tot.,    conf., and orb.    Bnorm      Frequency 
      ----------------------------------------------------------------
         1    4.07691D+00  2.86D+00  2.91D+00  1.27D+02    0.00000D+00

 ** RSPCTL MICROITERATION NUMBER    6

 *** INFO, negative eigenvalues in reduced matrix. Symmetry  4,  triplet       F Dimension of reduced matrix =    14

 GP * SOLUTION vector at frequency     0.00000 a.u.
 after    7 linear transformations is      6.93003799D+03
 INERTIA (POS,ZER,NEG) of reduced matrix is   13    0    1
 Determinant of reduced matrix is -6.62 * 10 **-11.0

       No.  Residual tot.,    conf., and orb.    Bnorm      Frequency 
      ----------------------------------------------------------------
         1    3.08485D+00  2.78D+00  1.34D+00  1.28D+02    0.00000D+00

 ** RSPCTL MICROITERATION NUMBER    7

 *** INFO, negative eigenvalues in reduced matrix. Symmetry  4,  triplet       F Dimension of reduced matrix =    16

 GP * SOLUTION vector at frequency     0.00000 a.u.
 after    8 linear transformations is      6.93677390D+03
 INERTIA (POS,ZER,NEG) of reduced matrix is   15    0    1
 Determinant of reduced matrix is -5.53 * 10 **-11.0

       No.  Residual tot.,    conf., and orb.    Bnorm      Frequency 
      ----------------------------------------------------------------
         1    1.92797D+00  1.25D+00  1.47D+00  1.28D+02    0.00000D+00

 ** RSPCTL MICROITERATION NUMBER    8

 *** INFO, negative eigenvalues in reduced matrix. Symmetry  4,  triplet       F Dimension of reduced matrix =    18

 GP * SOLUTION vector at frequency     0.00000 a.u.
 after    9 linear transformations is      6.93785807D+03
 INERTIA (POS,ZER,NEG) of reduced matrix is   17    0    1
 Determinant of reduced matrix is -8.12 * 10 **-13.0

       No.  Residual tot.,    conf., and orb.    Bnorm      Frequency 
      ----------------------------------------------------------------
         1    1.38422D+00  1.25D+00  5.87D-01  1.28D+02    0.00000D+00

 ** RSPCTL MICROITERATION NUMBER    9

 *** INFO, negative eigenvalues in reduced matrix. Symmetry  4,  triplet       F Dimension of reduced matrix =    20

 GP * SOLUTION vector at frequency     0.00000 a.u.
 after   10 linear transformations is      6.93925793D+03
 INERTIA (POS,ZER,NEG) of reduced matrix is   19    0    1
 Determinant of reduced matrix is -9.70 * 10 **-13.0

       No.  Residual tot.,    conf., and orb.    Bnorm      Frequency 
      ----------------------------------------------------------------
         1    6.70449D-01  7.43D-02  6.66D-01  1.28D+02    0.00000D+00

 ** RSPCTL MICROITERATION NUMBER   10

 *** INFO, negative eigenvalues in reduced matrix. Symmetry  4,  triplet       F Dimension of reduced matrix =    22

 GP * SOLUTION vector at frequency     0.00000 a.u.
 after   11 linear transformations is      6.93947556D+03
 INERTIA (POS,ZER,NEG) of reduced matrix is   21    0    1
 Determinant of reduced matrix is -7.34 * 10 **-15.0

       No.  Residual tot.,    conf., and orb.    Bnorm      Frequency 
      ----------------------------------------------------------------
         1    2.56899D-01  1.27D-01  2.23D-01  1.29D+02    0.00000D+00

 ** RSPCTL MICROITERATION NUMBER   11

 *** INFO, negative eigenvalues in reduced matrix. Symmetry  4,  triplet       F Dimension of reduced matrix =    24

 GP * SOLUTION vector at frequency     0.00000 a.u.
 after   12 linear transformations is      6.93950812D+03
 INERTIA (POS,ZER,NEG) of reduced matrix is   23    0    1
 Determinant of reduced matrix is -2.44 * 10 **-16.0

       No.  Residual tot.,    conf., and orb.    Bnorm      Frequency 
      ----------------------------------------------------------------
         1    1.53231D-01  1.07D-01  1.10D-01  1.29D+02    0.00000D+00

 ** RSPCTL MICROITERATION NUMBER   12

 *** INFO, negative eigenvalues in reduced matrix. Symmetry  4,  triplet       F Dimension of reduced matrix =    26

 GP * SOLUTION vector at frequency     0.00000 a.u.
 after   13 linear transformations is      6.93951198D+03
 INERTIA (POS,ZER,NEG) of reduced matrix is   25    0    1
 Determinant of reduced matrix is -3.75 * 10 **-18.0

       No.  Residual tot.,    conf., and orb.    Bnorm      Frequency 
      ----------------------------------------------------------------
         1    1.04555D-01  9.99D-02  3.09D-02  1.29D+02    0.00000D+00

 *** THE REQUESTED    1 SOLUTION VECTORS CONVERGED

 Convergence of RSP solution vectors, threshold = 1.00D-03
 ---------------------------------------------------------------
 (dimension of paired reduced space:   26)
 RSP solution vector no.    1; norm of residual   8.12D-04

 *** RSPCTL MICROITERATIONS CONVERGED
    XDIPLEN     YDIPLEN      freq1     freq2                Norm
 ---------------------------------------------------------------
                          0.058400 -0.058400        128.73167366


 Perturbation symmetry.     KSYMOP:       1
 Perturbation spin symmetry.TRPLET:       F
 Orbital variables.         KZWOPT:    2762
 Configuration variables.   KZCONF:     115
 Total number of variables. KZVAR :    2877


 CRLRV2 -- linear response calc for sym:  1
 CRLRV2 -- operator label1: YDIPLEN 
 CRLRV2 -- operator label2: YDIPLEN 
 CRLRV2 -- freqr1 :   5.840000D-02
 CRLRV2 -- freqr2 :   5.840000D-02



 ---  SOLVING SETS OF LINEAR EQUATIONS FOR LINEAR RESPONSE PROPERTIES ---

 Operator symmetry = 1  ( A1 ); triplet =   F


 ** RSPCTL MICROITERATION NUMBER    1

       No.  Residual tot.,    conf., and orb.    Bnorm      Frequency 
      ----------------------------------------------------------------
         1    1.58319D+01  1.15D+00  1.58D+01  8.52D+01    1.16800D-01

 ** RSPCTL MICROITERATION NUMBER    2

       No.  Residual tot.,    conf., and orb.    Bnorm      Frequency 
      ----------------------------------------------------------------
         1    7.06070D+00  1.22D+00  6.96D+00  8.98D+01    1.16800D-01

 ** RSPCTL MICROITERATION NUMBER    3

       No.  Residual tot.,    conf., and orb.    Bnorm      Frequency 
      ----------------------------------------------------------------
         1    2.77687D+00  1.35D+00  2.43D+00  9.15D+01    1.16800D-01

 ** RSPCTL MICROITERATION NUMBER    4

       No.  Residual tot.,    conf., and orb.    Bnorm      Frequency 
      ----------------------------------------------------------------
         1    1.62833D+00  1.42D+00  7.95D-01  9.21D+01    1.16800D-01

 ** RSPCTL MICROITERATION NUMBER    5

       No.  Residual tot.,    conf., and orb.    Bnorm      Frequency 
      ----------------------------------------------------------------
         1    1.26722D+00  5.00D-01  1.16D+00  9.23D+01    1.16800D-01

 ** RSPCTL MICROITERATION NUMBER    6

       No.  Residual tot.,    conf., and orb.    Bnorm      Frequency 
      ----------------------------------------------------------------
         1    1.12754D+00  6.13D-01  9.46D-01  9.31D+01    1.16800D-01

 ** RSPCTL MICROITERATION NUMBER    7

       No.  Residual tot.,    conf., and orb.    Bnorm      Frequency 
      ----------------------------------------------------------------
         1    8.21389D-01  6.98D-01  4.33D-01  9.40D+01    1.16800D-01

 ** RSPCTL MICROITERATION NUMBER    8

       No.  Residual tot.,    conf., and orb.    Bnorm      Frequency 
      ----------------------------------------------------------------
         1    6.04631D-01  2.63D-01  5.45D-01  9.43D+01    1.16800D-01

 ** RSPCTL MICROITERATION NUMBER    9

       No.  Residual tot.,    conf., and orb.    Bnorm      Frequency 
      ----------------------------------------------------------------
         1    3.29792D-01  2.68D-01  1.92D-01  9.45D+01    1.16800D-01

 ** RSPCTL MICROITERATION NUMBER   10

       No.  Residual tot.,    conf., and orb.    Bnorm      Frequency 
      ----------------------------------------------------------------
         1    2.78840D-01  4.70D-02  2.75D-01  9.48D+01    1.16800D-01

 ** RSPCTL MICROITERATION NUMBER   11

       No.  Residual tot.,    conf., and orb.    Bnorm      Frequency 
      ----------------------------------------------------------------
         1    1.16012D-01  5.60D-02  1.02D-01  9.47D+01    1.16800D-01

 ** RSPCTL MICROITERATION NUMBER   12

       No.  Residual tot.,    conf., and orb.    Bnorm      Frequency 
      ----------------------------------------------------------------
         1    6.76994D-02  6.02D-02  3.09D-02  9.46D+01    1.16800D-01

 *** THE REQUESTED    1 SOLUTION VECTORS CONVERGED

 Convergence of RSP solution vectors, threshold = 1.00D-03
 ---------------------------------------------------------------
 (dimension of paired reduced space:   26)
 RSP solution vector no.    1; norm of residual   7.16D-04

 *** RSPCTL MICROITERATIONS CONVERGED
    YDIPLEN     YDIPLEN      freq1     freq2                Norm
 ---------------------------------------------------------------
                          0.058400  0.058400         94.61476404
  Time used in CRVEC2     is       2 hours 26 minutes 42 seconds


 ----- CALCULATING CONTRIBUTIONS TO SECOND HYPERPOLARIZABILITY -----


   Contribution                Term         Accumulated
 ------------------------------------------------------
 Na T[4] Nb Nc Nd    44451.36231779      44451.36231779
 Na T[3] Nx Nyz     -90576.19802534     -46124.83570755
 Na X[3] Ny Nz       54488.22505057       8363.38934302
 Nx A[3] Ny Nz       18162.74168352      26526.13102655
 Na X[2] Nyz        -15543.11737226      10983.01365428
 Nx A[2] Nyz        -37047.14320131     -26064.12954703

@ Cubic response function value in a.u. for
@ A operator, symmetry, frequency:   ZDIPLEN    1 -0.058400
@ B operator, symmetry, frequency:   ZDIPLEN    1  0.058400
@ C operator, symmetry, frequency:   ZDIPLEN    1 -0.058400
@ D operator, symmetry, frequency:   ZDIPLEN    1  0.058400

@ << A; B, C, D >>  =      -26064.12954703



   Contribution                Term         Accumulated
 ------------------------------------------------------
 Na T[4] Nb Nc Nd   100173.02167520     100173.02167520
 Na T[3] Nx Nyz   -1190238.71595500   -1090065.69427980
 Na X[3] Ny Nz       50410.87994912   -1039654.81433068
 Nx A[3] Ny Nz       12677.55810103   -1026977.25622965
 Na X[2] Nyz        367679.66267463    -659297.59355503
 Nx A[2] Nyz        -66018.29475587    -725315.88831090

@ Cubic response function value in a.u. for
@ A operator, symmetry, frequency:   XDIPLEN    2 -0.058400
@ B operator, symmetry, frequency:   XDIPLEN    2  0.058400
@ C operator, symmetry, frequency:   ZDIPLEN    1 -0.058400
@ D operator, symmetry, frequency:   ZDIPLEN    1  0.058400

@ << A; B, C, D >>  =     -725315.88831090



   Contribution                Term         Accumulated
 ------------------------------------------------------
 Na T[4] Nb Nc Nd    -4274.04364598      -4274.04364598
 Na T[3] Nx Nyz      -1950.20161298      -6224.24525896
 Na X[3] Ny Nz        8034.52418472       1810.27892576
 Nx A[3] Ny Nz        2767.49149538       4577.77042114
 Na X[2] Nyz         -1586.51154449       2991.25887666
 Nx A[2] Nyz         -7184.82103926      -4193.56216261

@ Cubic response function value in a.u. for
@ A operator, symmetry, frequency:   YDIPLEN    3 -0.058400
@ B operator, symmetry, frequency:   YDIPLEN    3  0.058400
@ C operator, symmetry, frequency:   ZDIPLEN    1 -0.058400
@ D operator, symmetry, frequency:   ZDIPLEN    1  0.058400

@ << A; B, C, D >>  =       -4193.56216261



   Contribution                Term         Accumulated
 ------------------------------------------------------
 Na T[4] Nb Nc Nd    90319.02892623      90319.02892623
 Na T[3] Nx Nyz    -610214.71494928    -519895.68602305
 Na X[3] Ny Nz       49074.50192203    -470821.18410102
 Nx A[3] Ny Nz       12038.94169324    -458782.24240778
 Na X[2] Nyz        149971.96000630    -308810.28240148
 Nx A[2] Nyz        -33846.76845953    -342657.05086101

@ Cubic response function value in a.u. for
@ A operator, symmetry, frequency:   XDIPLEN    2 -0.058400
@ B operator, symmetry, frequency:   ZDIPLEN    1  0.058400
@ C operator, symmetry, frequency:   XDIPLEN    2 -0.058400
@ D operator, symmetry, frequency:   ZDIPLEN    1  0.058400

@ << A; B, C, D >>  =     -342657.05086101



   Contribution                Term         Accumulated
 ------------------------------------------------------
 Na T[4] Nb Nc Nd    -4170.56006334      -4170.56006334
 Na T[3] Nx Nyz      -1758.46069539      -5929.02075874
 Na X[3] Ny Nz        7785.63150581       1856.61074708
 Nx A[3] Ny Nz        2626.35804795       4482.96879503
 Na X[2] Nyz         -1635.32158255       2847.64721248
 Nx A[2] Nyz         -6948.37146864      -4100.72425616

@ Cubic response function value in a.u. for
@ A operator, symmetry, frequency:   YDIPLEN    3 -0.058400
@ B operator, symmetry, frequency:   ZDIPLEN    1  0.058400
@ C operator, symmetry, frequency:   YDIPLEN    3 -0.058400
@ D operator, symmetry, frequency:   ZDIPLEN    1  0.058400

@ << A; B, C, D >>  =       -4100.72425616



   Contribution                Term         Accumulated
 ------------------------------------------------------
 Na T[4] Nb Nc Nd   119946.86385719     119946.86385719
 Na T[3] Nx Nyz    -635058.48677646    -515111.62291927
 Na X[3] Ny Nz       70593.46323683    -444518.15968244
 Nx A[3] Ny Nz       27850.38002638    -416667.77965606
 Na X[2] Nyz        -52283.21470868    -468950.99436474
 Nx A[2] Nyz        126412.38640374    -342538.60796099

@ Cubic response function value in a.u. for
@ A operator, symmetry, frequency:   ZDIPLEN    1 -0.058400
@ B operator, symmetry, frequency:   XDIPLEN    2  0.058400
@ C operator, symmetry, frequency:   ZDIPLEN    1 -0.058400
@ D operator, symmetry, frequency:   XDIPLEN    2  0.058400

@ << A; B, C, D >>  =     -342538.60796099



   Contribution                Term         Accumulated
 ------------------------------------------------------
 Na T[4] Nb Nc Nd 11416392.44368291   11416392.44368291
 Na T[3] Nx Nyz  -12209388.78162184    -792996.33793893
 Na X[3] Ny Nz      870981.65531512      77985.31737620
 Nx A[3] Ny Nz      290327.21843838     368312.53581457
 Na X[2] Nyz        116247.67090059     484560.20671516
 Nx A[2] Nyz       -382661.79978800     101898.40692716

@ Cubic response function value in a.u. for
@ A operator, symmetry, frequency:   XDIPLEN    2 -0.058400
@ B operator, symmetry, frequency:   XDIPLEN    2  0.058400
@ C operator, symmetry, frequency:   XDIPLEN    2 -0.058400
@ D operator, symmetry, frequency:   XDIPLEN    2  0.058400

@ << A; B, C, D >>  =      101898.40692716



   Contribution                Term         Accumulated
 ------------------------------------------------------
 Na T[4] Nb Nc Nd    -1904.38589455      -1904.38589455
 Na T[3] Nx Nyz      -3777.08224303      -5681.46813757
 Na X[3] Ny Nz        9617.40631428       3935.93817671
 Nx A[3] Ny Nz        1409.46588700       5345.40406371
 Na X[2] Nyz         -1444.57942965       3900.82463406
 Nx A[2] Nyz         -7980.84865151      -4080.02401744

@ Cubic response function value in a.u. for
@ A operator, symmetry, frequency:   YDIPLEN    3 -0.058400
@ B operator, symmetry, frequency:   YDIPLEN    3  0.058400
@ C operator, symmetry, frequency:   XDIPLEN    2 -0.058400
@ D operator, symmetry, frequency:   XDIPLEN    2  0.058400

@ << A; B, C, D >>  =       -4080.02401744



   Contribution                Term         Accumulated
 ------------------------------------------------------
 Na T[4] Nb Nc Nd    -1812.99830574      -1812.99830574
 Na T[3] Nx Nyz      -3939.32313806      -5752.32144380
 Na X[3] Ny Nz        9178.89036001       3426.56891621
 Nx A[3] Ny Nz        1086.91201562       4513.48093183
 Na X[2] Nyz         -1082.29230815       3431.18862368
 Nx A[2] Nyz         -6791.81766217      -3360.62903849

@ Cubic response function value in a.u. for
@ A operator, symmetry, frequency:   YDIPLEN    3 -0.058400
@ B operator, symmetry, frequency:   XDIPLEN    2  0.058400
@ C operator, symmetry, frequency:   YDIPLEN    3 -0.058400
@ D operator, symmetry, frequency:   XDIPLEN    2  0.058400

@ << A; B, C, D >>  =       -3360.62903849



   Contribution                Term         Accumulated
 ------------------------------------------------------
 Na T[4] Nb Nc Nd     -167.11314466       -167.11314466
 Na T[3] Nx Nyz       1039.09739748        871.98425283
 Na X[3] Ny Nz         260.07712189       1132.06137472
 Nx A[3] Ny Nz          55.54482795       1187.60620266
 Na X[2] Nyz         -3512.52732303      -2324.92112036
 Nx A[2] Nyz         -1777.45283041      -4102.37395077

@ Cubic response function value in a.u. for
@ A operator, symmetry, frequency:   ZDIPLEN    1 -0.058400
@ B operator, symmetry, frequency:   YDIPLEN    3  0.058400
@ C operator, symmetry, frequency:   ZDIPLEN    1 -0.058400
@ D operator, symmetry, frequency:   YDIPLEN    3  0.058400

@ << A; B, C, D >>  =       -4102.37395077



   Contribution                Term         Accumulated
 ------------------------------------------------------
 Na T[4] Nb Nc Nd     4566.47328631       4566.47328631
 Na T[3] Nx Nyz       6803.63994998      11370.11323629
 Na X[3] Ny Nz       -5663.96781736       5706.14541893
 Nx A[3] Ny Nz          84.72883193       5790.87425086
 Na X[2] Nyz         -7214.36533727      -1423.49108641
 Nx A[2] Nyz         -1924.39089006      -3347.88197648

@ Cubic response function value in a.u. for
@ A operator, symmetry, frequency:   XDIPLEN    2 -0.058400
@ B operator, symmetry, frequency:   YDIPLEN    3  0.058400
@ C operator, symmetry, frequency:   XDIPLEN    2 -0.058400
@ D operator, symmetry, frequency:   YDIPLEN    3  0.058400

@ << A; B, C, D >>  =       -3347.88197648



   Contribution                Term         Accumulated
 ------------------------------------------------------
 Na T[4] Nb Nc Nd     -510.30911980       -510.30911980
 Na T[3] Nx Nyz       2229.97137815       1719.66225835
 Na X[3] Ny Nz        1463.01490109       3182.67715943
 Nx A[3] Ny Nz         487.67163370       3670.34879313
 Na X[2] Nyz         -6623.27094582      -2952.92215269
 Nx A[2] Nyz         -6653.99012522      -9606.91227791

@ Cubic response function value in a.u. for
@ A operator, symmetry, frequency:   YDIPLEN    3 -0.058400
@ B operator, symmetry, frequency:   YDIPLEN    3  0.058400
@ C operator, symmetry, frequency:   YDIPLEN    3 -0.058400
@ D operator, symmetry, frequency:   YDIPLEN    3  0.058400

@ << A; B, C, D >>  =       -9606.91227791



  Summary of gamma values for a set of frequencies
 -------------------------------------------------

@ B-freq:  0.058400
@ C-freq: -0.058400
@ D-freq:  0.058400

@ gamma(X;X,X,X)    -101898.4069
@ gamma(X;X,Y,Y)       4080.0240
@ gamma(X;Y,Y,X)       4080.0240
@ gamma(X;Y,X,Y)       3347.8820
@ gamma(X;X,Z,Z)     725315.8883
@ gamma(X;Z,Z,X)     725315.8883
@ gamma(X;Z,X,Z)     342657.0509
@ gamma(Y;Y,X,X)       4080.0240
@ gamma(Y;X,X,Y)       4080.0240
@ gamma(Y;X,Y,X)       3360.6290
@ gamma(Y;Y,Y,Y)       9606.9123
@ gamma(Y;Y,Z,Z)       4193.5622
@ gamma(Y;Z,Z,Y)       4193.5622
@ gamma(Y;Z,Y,Z)       4100.7243
@ gamma(Z;Z,X,X)     725315.8883
@ gamma(Z;X,X,Z)     725315.8883
@ gamma(Z;X,Z,X)     342538.6080
@ gamma(Z;Z,Y,Y)       4193.5622
@ gamma(Z;Y,Y,Z)       4193.5622
@ gamma(Z;Y,Z,Y)       4102.3740
@ gamma(Z;Z,Z,Z)      26064.1295

@ Averaged gamma parallel to the applied field is    229052.204713

  Total CPU  time used in RESPONSE:   7 hours 16 minutes 24 seconds
  Total wall time used in RESPONSE:   7 hours 16 minutes 30 seconds


                   .-------------------------------------------.
                   | End of Dynamic Property Section (RESPONS) |
                   `-------------------------------------------'

  Total CPU  time used in DALTON:   8 hours 33 minutes 53 seconds
  Total wall time used in DALTON:   8 hours 34 minutes  2 seconds

 
     Date and time (Linux)  : Sun Feb 23 22:33:28 2020
     Host name              : Lab2-333-NPs                            
