

     ************************************************************************
     *************** Dalton - An Electronic Structure Program ***************
     ************************************************************************

    This is output from DALTON release Dalton2018.1 (2019)
         ( Web site: http://daltonprogram.org )

   ----------------------------------------------------------------------------

    NOTE:
     
    Dalton is an experimental code for the evaluation of molecular
    properties using (MC)SCF, DFT, CI, and CC wave functions.
    The authors accept no responsibility for the performance of
    the code or for the correctness of the results.
     
    The code (in whole or part) is provided under a licence and
    is not to be reproduced for further distribution without
    the written permission of the authors or their representatives.
     
    See the home page "http://daltonprogram.org" for further information.
     
    If results obtained with this code are published,
    the appropriate citations would be both of:
     
       K. Aidas, C. Angeli, K. L. Bak, V. Bakken, R. Bast,
       L. Boman, O. Christiansen, R. Cimiraglia, S. Coriani,
       P. Dahle, E. K. Dalskov, U. Ekstroem,
       T. Enevoldsen, J. J. Eriksen, P. Ettenhuber, B. Fernandez,
       L. Ferrighi, H. Fliegl, L. Frediani, K. Hald, A. Halkier,
       C. Haettig, H. Heiberg, T. Helgaker, A. C. Hennum,
       H. Hettema, E. Hjertenaes, S. Hoest, I.-M. Hoeyvik,
       M. F. Iozzi, B. Jansik, H. J. Aa. Jensen, D. Jonsson,
       P. Joergensen, J. Kauczor, S. Kirpekar,
       T. Kjaergaard, W. Klopper, S. Knecht, R. Kobayashi, H. Koch,
       J. Kongsted, A. Krapp, K. Kristensen, A. Ligabue,
       O. B. Lutnaes, J. I. Melo, K. V. Mikkelsen, R. H. Myhre,
       C. Neiss, C. B. Nielsen, P. Norman, J. Olsen,
       J. M. H. Olsen, A. Osted, M. J. Packer, F. Pawlowski,
       T. B. Pedersen, P. F. Provasi, S. Reine, Z. Rinkevicius,
       T. A. Ruden, K. Ruud, V. Rybkin, P. Salek, C. C. M. Samson,
       A. Sanchez de Meras, T. Saue, S. P. A. Sauer,
       B. Schimmelpfennig, K. Sneskov, A. H. Steindal,
       K. O. Sylvester-Hvid, P. R. Taylor, A. M. Teale,
       E. I. Tellgren, D. P. Tew, A. J. Thorvaldsen, L. Thoegersen,
       O. Vahtras, M. A. Watson, D. J. D. Wilson, M. Ziolkowski
       and H. Agren,
       "The Dalton quantum chemistry program system",
       WIREs Comput. Mol. Sci. 2014, 4:269–284 (doi: 10.1002/wcms.1172)
     
    and
     
       Dalton, a molecular electronic structure program,
       Release Dalton2018.1 (2019), see http://daltonprogram.org
   ----------------------------------------------------------------------------

    Authors in alphabetical order (major contribution(s) in parenthesis):

  Kestutis Aidas,           Vilnius University,           Lithuania   (QM/MM)
  Celestino Angeli,         University of Ferrara,        Italy       (NEVPT2)
  Keld L. Bak,              UNI-C,                        Denmark     (AOSOPPA, non-adiabatic coupling, magnetic properties)
  Vebjoern Bakken,          University of Oslo,           Norway      (DALTON; geometry optimizer, symmetry detection)
  Radovan Bast,             UiT The Arctic U. of Norway,  Norway      (DALTON installation and execution frameworks)
  Pablo Baudin,             University of Valencia,       Spain       (Cholesky excitation energies)
  Linus Boman,              NTNU,                         Norway      (Cholesky decomposition and subsystems)
  Ove Christiansen,         Aarhus University,            Denmark     (CC module)
  Renzo Cimiraglia,         University of Ferrara,        Italy       (NEVPT2)
  Sonia Coriani,            Technical Univ. of Denmark,   Denmark     (CC module, MCD in RESPONS)
  Janusz Cukras,            University of Trieste,        Italy       (MChD in RESPONS)
  Paal Dahle,               University of Oslo,           Norway      (Parallelization)
  Erik K. Dalskov,          UNI-C,                        Denmark     (SOPPA)
  Thomas Enevoldsen,        Univ. of Southern Denmark,    Denmark     (SOPPA)
  Janus J. Eriksen,         Aarhus University,            Denmark     (Polarizable embedding model, TDA)
  Rasmus Faber,             University of Copenhagen,     Denmark     (Vib.avg. NMR with SOPPA, parallel AO-SOPPA)
  Tobias Fahleson,          KTH Stockholm,                Sweden      (Damped cubic response)
  Berta Fernandez,          U. of Santiago de Compostela, Spain       (doublet spin, ESR in RESPONS)
  Lara Ferrighi,            Aarhus University,            Denmark     (PCM Cubic response)
  Heike Fliegl,             University of Oslo,           Norway      (CCSD(R12))
  Luca Frediani,            UiT The Arctic U. of Norway,  Norway      (PCM)
  Bin Gao,                  UiT The Arctic U. of Norway,  Norway      (Gen1Int library)
  Christof Haettig,         Ruhr-University Bochum,       Germany     (CC module)
  Kasper Hald,              Aarhus University,            Denmark     (CC module)
  Asger Halkier,            Aarhus University,            Denmark     (CC module)
  Frederik Beyer Hansen,    University of Copenhagen,     Denmark     (Parallel AO-SOPPA)
  Erik D. Hedegaard,        Univ. of Southern Denmark,    Denmark     (Polarizable embedding model, QM/MM)
  Hanne Heiberg,            University of Oslo,           Norway      (geometry analysis, selected one-electron integrals)
  Trygve Helgaker,          University of Oslo,           Norway      (DALTON; ABACUS, ERI, DFT modules, London, and much more)
  Alf Christian Hennum,     University of Oslo,           Norway      (Parity violation)
  Hinne Hettema,            University of Auckland,       New Zealand (quadratic response in RESPONS; SIRIUS supersymmetry)
  Eirik Hjertenaes,         NTNU,                         Norway      (Cholesky decomposition)
  Pi A. B. Haase,           University of Copenhagen,     Denmark     (Triplet AO-SOPPA)
  Maria Francesca Iozzi,    University of Oslo,           Norway      (RPA)
  Christoph Jacob           TU Braunschweig               Germany     (Frozen density embedding model)
  Brano Jansik              Technical Univ. of Ostrava    Czech Rep.  (DFT cubic response)
  Hans Joergen Aa. Jensen,  Univ. of Southern Denmark,    Denmark     (DALTON; SIRIUS, RESPONS, ABACUS modules, London, and much more)
  Dan Jonsson,              UiT The Arctic U. of Norway,  Norway      (cubic response in RESPONS module)
  Poul Joergensen,          Aarhus University,            Denmark     (RESPONS, ABACUS, and CC modules)
  Maciej Kaminski,          University of Warsaw,         Poland      (CPPh in RESPONS)
  Joanna Kauczor,           Linkoeping University,        Sweden      (Complex polarization propagator (CPP) module)
  Sheela Kirpekar,          Univ. of Southern Denmark,    Denmark     (Mass-velocity & Darwin integrals)
  Wim Klopper,              KIT Karlsruhe,                Germany     (R12 code in CC, SIRIUS, and ABACUS modules)
  Stefan Knecht,            ETH Zurich,                   Switzerland (Parallel CI and MCSCF)
  Rika Kobayashi,           Australian National Univ.,    Australia   (DIIS in CC, London in MCSCF)
  Henrik Koch,              NTNU,                         Norway      (CC module, Cholesky decomposition)
  Jacob Kongsted,           Univ. of Southern Denmark,    Denmark     (Polarizable embedding model, QM/MM)
  Andrea Ligabue,           University of Modena,         Italy       (CTOCD, AOSOPPA)
  Nanna H. List             Univ. of Southern Denmark,    Denmark     (Polarizable embedding model)
  Ola B. Lutnaes,           University of Oslo,           Norway      (DFT Hessian)
  Juan I. Melo,             University of Buenos Aires,   Argentina   (LRESC, Relativistic Effects on NMR Shieldings)
  Kurt V. Mikkelsen,        University of Copenhagen,     Denmark     (MC-SCRF and QM/MM)
  Rolf H. Myhre,            NTNU,                         Norway      (Subsystems and CC3)
  Christian Neiss,          Univ. Erlangen-Nuernberg,     Germany     (CCSD(R12))
  Christian B. Nielsen,     University of Copenhagen,     Denmark     (QM/MM)
  Patrick Norman,           KTH Stockholm,                Sweden      (Cubic response and complex frequency response in RESPONS)
  Jeppe Olsen,              Aarhus University,            Denmark     (SIRIUS CI/density modules)
  Jogvan Magnus H. Olsen,   Univ. of Southern Denmark,    Denmark     (Polarizable embedding model, QM/MM)
  Anders Osted,             Copenhagen University,        Denmark     (QM/MM)
  Martin J. Packer,         University of Sheffield,      UK          (SOPPA)
  Filip Pawlowski,          Kazimierz Wielki University,  Poland      (CC3)
  Morten N. Pedersen,       Univ. of Southern Denmark,    Denmark     (Polarizable embedding model)
  Thomas B. Pedersen,       University of Oslo,           Norway      (Cholesky decomposition)
  Patricio F. Provasi,      University of Northeastern,   Argentina   (Analysis of coupling constants in localized orbitals)
  Zilvinas Rinkevicius,     KTH Stockholm,                Sweden      (open-shell DFT, ESR)
  Elias Rudberg,            KTH Stockholm,                Sweden      (DFT grid and basis info)
  Torgeir A. Ruden,         University of Oslo,           Norway      (Numerical derivatives in ABACUS)
  Kenneth Ruud,             UiT The Arctic U. of Norway,  Norway      (DALTON; ABACUS magnetic properties and much more)
  Pawel Salek,              KTH Stockholm,                Sweden      (DALTON; DFT code)
  Claire C. M. Samson       University of Karlsruhe       Germany     (Boys localization, r12 integrals in ERI)
  Alfredo Sanchez de Meras, University of Valencia,       Spain       (CC module, Cholesky decomposition)
  Trond Saue,               Paul Sabatier University,     France      (direct Fock matrix construction)
  Stephan P. A. Sauer,      University of Copenhagen,     Denmark     (SOPPA(CCSD), SOPPA prop., AOSOPPA, vibrational g-factors)
  Andre S. P. Gomes,        CNRS/Universite de Lille,     France      (Frozen density embedding model)
  Bernd Schimmelpfennig,    Forschungszentrum Karlsruhe,  Germany     (AMFI module)
  Kristian Sneskov,         Aarhus University,            Denmark     (Polarizable embedding model, QM/MM)
  Arnfinn H. Steindal,      UiT The Arctic U. of Norway,  Norway      (parallel QM/MM, Polarizable embedding model)
  Casper Steinmann,         Univ. of Southern Denmark,    Denmark     (QFIT, Polarizable embedding model)
  K. O. Sylvester-Hvid,     University of Copenhagen,     Denmark     (MC-SCRF)
  Peter R. Taylor,          VLSCI/Univ. of Melbourne,     Australia   (Symmetry handling ABACUS, integral transformation)
  Andrew M. Teale,          University of Nottingham,     England     (DFT-AC, DFT-D)
  David P. Tew,             University of Bristol,        England     (CCSD(R12))
  Olav Vahtras,             KTH Stockholm,                Sweden      (triplet response, spin-orbit, ESR, TDDFT, open-shell DFT)
  Lucas Visscher,           Vrije Universiteit Amsterdam, Netherlands (Frozen density embedding model)
  David J. Wilson,          La Trobe University,          Australia   (DFT Hessian and DFT magnetizabilities)
  Hans Agren,               KTH Stockholm,                Sweden      (SIRIUS module, RESPONS, MC-SCRF solvation model)
 --------------------------------------------------------------------------------

     Date and time (Linux)  : Sun Feb 23 22:33:29 2020
     Host name              : Lab2-333-NPs                            

 * Work memory size             :  1024000000 =  7.629 gigabytes.

 * Directories for basis set searches:
   1) /home/lab333/dalton/build_2018_atlas
   2) /home/lab333/dalton/build_2018_atlas/basis


Compilation information
-----------------------

 Who compiled             | lab333
 Host                     | Lab2-333-NPs
 System                   | Linux-4.4.0-43-Microsoft
 CMake generator          | Unix Makefiles
 Processor                | x86_64
 64-bit integers          | OFF
 MPI                      | OFF
 Fortran compiler         | /usr/bin/gfortran
 Fortran compiler version | GNU Fortran (Ubuntu 7.3.0-27ubuntu1~18.04) 7.3.0
 C compiler               | /usr/bin/gcc
 C compiler version       | gcc (Ubuntu 7.3.0-27ubuntu1~18.04) 7.3.0
 C++ compiler             | /usr/bin/g++
 C++ compiler version     | g++ (Ubuntu 7.3.0-27ubuntu1~18.04) 7.3.0
 BLAS                     | /usr/lib/x86_64-linux-gnu/libf77blas.so;/usr/lib/x
                          | 86_64-linux-gnu/libcblas.so;/usr/lib/x86_64-linux-
                          | gnu/libatlas.so
 LAPACK                   | /usr/lib/x86_64-linux-gnu/libatlas.so;/usr/lib/x86
                          | _64-linux-gnu/atlas/liblapack.so
 Static linking           | OFF
 Last Git revision        | da625bf48c74028e805616daee31bc5d76b3a20d
 Git branch               | (HEAD detached at Dalton2018.1)
 Configuration time       | 2019-01-18 10:20:51.437510


   Content of the .dal input file
 ----------------------------------

**DALTON INPUT
.RUN RESPONSE
.DIRECT
**WAVE FUNCTIONS
.HF
.MP2
.MCSCF
*CONFIGURATION INPUT
.SPIN MULTIPLICITY
1
.SYMMETRY
1
.INACTIVE ORBITALS
15 10 2 0
.CAS SPACE
1 1 2 3
.ELECTRONS
10
*ORBITAL INPUT
.MOSTART
.HUCKEL
*OPTIMIZATION
.DETERMINANTS
.STATE
1
*CI VECTOR
.PLUS COMBINATIONS
**RESPONSE
*CUBIC
.DIPLEN
.BFREQ
1
0.0584
.CFREQ
1
-0.0584
.DFREQ
1
0.0584
**END OF DALTON INPUT


   Content of the .mol file
 ----------------------------

BASIS
aug-cc-pCVDZ
 nitrobenzene
 Generated by the Dalton Input File Plugin for Avogadro
Atomtypes=4 Angstrom Generators=2 X Y
Charge=6.0 Atoms=4
C        0.0000000000            0.0000000000           -0.0265759623
C       -1.2190534920            0.0000000000           -0.6979856948
C       -1.2105095870            0.0000000000           -2.0897394457
C        0.0000000000            0.0000000000           -2.7841484631
Charge=7.0 Atoms=1
N        0.0000000000            0.0000000000            1.5549291696
Charge=8.0 Atoms=1
O       1.0847503743            0.0            2.1235779798000003
Charge=1.0 Atoms=3
H       -2.1410602955            0.0000000000           -0.1327964319
H       -2.1492827751            0.0000000000           -2.6311811056
H        0.0000000000            0.0000000000           -3.8683953478


       *******************************************************************
       *********** Output from DALTON general input processing ***********
       *******************************************************************

 --------------------------------------------------------------------------------
   Overall default print level:    0
   Print level for DALTON.STAT:    1

    AO-direct calculation (in sections where implemented)
    HERMIT 1- and 2-electron integral sections will be executed
    "Old" integral transformation used (limited to max 255 basis functions)
    Wave function sections will be executed (SIRIUS module)
    Dynamic molecular response properties section will be executed (RESPONSE module)
 --------------------------------------------------------------------------------


   ****************************************************************************
   *************** Output of molecule and basis set information ***************
   ****************************************************************************


    The two title cards from your ".mol" input:
    ------------------------------------------------------------------------
 1:  nitrobenzene                                                           
 2:  Generated by the Dalton Input File Plugin for Avogadro                 
    ------------------------------------------------------------------------

  Coordinates are entered in Angstrom and converted to atomic units.
          - Conversion factor : 1 bohr = 0.52917721 A

  Atomic type no.    1
  --------------------
  Nuclear charge:   6.00000
  Number of symmetry independent centers:    4
  Number of basis sets to read;    2
  Basis set file used for this atomic type with Z =   6 :
     "/home/lab333/dalton/build_2018_atlas/basis/aug-cc-pCVDZ"

  Atomic type no.    2
  --------------------
  Nuclear charge:   7.00000
  Number of symmetry independent centers:    1
  Number of basis sets to read;    2
  Basis set file used for this atomic type with Z =   7 :
     "/home/lab333/dalton/build_2018_atlas/basis/aug-cc-pCVDZ"

  Atomic type no.    3
  --------------------
  Nuclear charge:   8.00000
  Number of symmetry independent centers:    1
  Number of basis sets to read;    2
  Basis set file used for this atomic type with Z =   8 :
     "/home/lab333/dalton/build_2018_atlas/basis/aug-cc-pCVDZ"

  Atomic type no.    4
  --------------------
  Nuclear charge:   1.00000
  Number of symmetry independent centers:    3
  Number of basis sets to read;    2
  Basis set file used for this atomic type with Z =   1 :
     "/home/lab333/dalton/build_2018_atlas/basis/aug-cc-pCVDZ"


                         SYMGRP: Point group information
                         -------------------------------

@    Point group: C2v

@  * The irrep name for each symmetry:    1: A1     2: B1     3: B2     4: A2 

   * The point group was generated by:

      Reflection in the yz-plane
      Reflection in the xz-plane

   * Group multiplication table

        |  E   C2z  Oxz  Oyz
   -----+--------------------
     E  |  E   C2z  Oxz  Oyz
    C2z | C2z   E   Oyz  Oxz
    Oxz | Oxz  Oyz   E   C2z
    Oyz | Oyz  Oxz  C2z   E 

   * Character table

        |  E   C2z  Oxz  Oyz
   -----+--------------------
    A1  |   1    1    1    1
    B1  |   1   -1    1   -1
    B2  |   1   -1   -1    1
    A2  |   1    1   -1   -1

   * Direct product table

        | A1   B1   B2   A2 
   -----+--------------------
    A1  | A1   B1   B2   A2 
    B1  | B1   A1   A2   B2 
    B2  | B2   A2   A1   B1 
    A2  | A2   B2   B1   A1 


                                 Isotopic Masses
                                 ---------------

                           C          12.000000
                           C   _1     12.000000
                           C   _2     12.000000
                           C   _1     12.000000
                           C   _2     12.000000
                           C          12.000000
                           N          14.003074
                           O   _1     15.994915
                           O   _2     15.994915
                           H   _1      1.007825
                           H   _2      1.007825
                           H   _1      1.007825
                           H   _2      1.007825
                           H           1.007825

                       Total mass:   123.032029 amu
                       Natural abundance:  92.716 %

 Center-of-mass coordinates (a.u.):    0.000000    0.000000   -0.313295


  Atoms and basis sets
  --------------------

  Number of atom types :    4
  Total number of atoms:   14

  Basis set used is "aug-cc-pCVDZ" from the basis set library.

  label    atoms   charge   prim   cont     basis
  ----------------------------------------------------------------------
  C           6    6.0000    39    27      [11s6p2d|5s4p2d]                                   
  N           1    7.0000    39    27      [11s6p2d|5s4p2d]                                   
  O           2    8.0000    39    27      [11s6p2d|5s4p2d]                                   
  H           5    1.0000    11     9      [5s2p|3s2p]                                        
  ----------------------------------------------------------------------
  total:     14   64.0000   406   288
  ----------------------------------------------------------------------
  Spherical harmonic basis used.

  Threshold for neglecting AO integrals:  1.00D-12


  Symmetry Coordinates
  --------------------

  Number of coordinates in each symmetry:    14   14    9    5


   Interatomic separations (in Angstrom):
   --------------------------------------

            C           C   _1      C   _2      C   _1      C   _2      C     
            ------      ------      ------      ------      ------      ------
 C     :    0.000000
 C   _1:    1.391719    0.000000
 C   _2:    1.391719    2.438107    0.000000
 C   _1:    2.392065    1.391780    2.799956    0.000000
 C   _2:    2.392065    2.799956    1.391780    2.421019    0.000000
 C     :    2.757573    2.416230    2.416230    1.395542    1.395542    0.000000
 N     :    1.581505    2.561585    2.561585    3.840435    3.840435    4.339078
 O   _1:    2.408287    3.642627    2.824758    4.797944    4.215194    5.026178
 O   _2:    2.408287    2.824758    3.642627    4.215194    4.797944    5.026178
 H   _1:    2.143694    1.081451    3.407316    2.166922    3.881063    3.407904
 H   _2:    2.143694    3.407316    1.081451    3.881063    2.166922    3.407904
 H   _1:    3.376890    2.145360    3.883675    1.083722    3.403140    2.154719
 H   _2:    3.376890    3.883675    2.145360    3.403140    1.083722    2.154719
 H     :    3.841819    3.396703    3.396703    2.151500    2.151500    1.084247

            N           O   _1      O   _2      H   _1      H   _2      H   _1
            ------      ------      ------      ------      ------      ------
 N     :    0.000000
 O   _1:    1.224763    0.000000
 O   _2:    1.224763    2.169501    0.000000
 H   _1:    2.726272    3.936633    2.491388    0.000000
 H   _2:    2.726272    2.491388    3.936633    4.282121    0.000000
 H   _1:    4.705628    5.750366    4.872470    2.498398    4.964773    0.000000
 H   _2:    4.705628    4.872470    5.750366    4.964773    2.498398    4.298566
 H     :    5.423325    6.089370    6.089370    4.305675    4.305675    2.479943

            H   _2      H     
            ------      ------
 H   _2:    0.000000
 H     :    2.479943    0.000000


  Max    interatomic separation is    6.0894 Angstrom (   11.5072 Bohr)
  between atoms   14 and    8, "H     " and "O   _1".

  Min HX interatomic separation is    1.0815 Angstrom (    2.0436 Bohr)

  Min YX interatomic separation is    1.2248 Angstrom (    2.3145 Bohr)


  Bond distances (Angstrom):
  --------------------------

                  atom 1     atom 2       distance
                  ------     ------       --------
  bond distance:  C   _1     C            1.391719
  bond distance:  C   _2     C            1.391719
  bond distance:  C   _1     C   _1       1.391780
  bond distance:  C   _2     C   _2       1.391780
  bond distance:  C          C   _1       1.395542
  bond distance:  C          C   _2       1.395542
  bond distance:  N          C            1.581505
  bond distance:  O   _1     N            1.224763
  bond distance:  O   _2     N            1.224763
  bond distance:  H   _1     C   _1       1.081451
  bond distance:  H   _2     C   _2       1.081451
  bond distance:  H   _1     C   _1       1.083722
  bond distance:  H   _2     C   _2       1.083722
  bond distance:  H          C            1.084247


  Bond angles (degrees):
  ----------------------

                  atom 1     atom 2     atom 3         angle
                  ------     ------     ------         -----
  bond angle:     C   _1     C          C   _2       122.311
  bond angle:     C   _1     C          N            118.844
  bond angle:     C   _2     C          N            118.844
  bond angle:     C          C   _1     C   _1       118.493
  bond angle:     C          C   _1     H   _1       119.647
  bond angle:     C   _1     C   _1     H   _1       121.860
  bond angle:     C          C   _2     C   _2       118.493
  bond angle:     C          C   _2     H   _2       119.647
  bond angle:     C   _2     C   _2     H   _2       121.860
  bond angle:     C   _1     C   _1     C            120.192
  bond angle:     C   _1     C   _1     H   _1       119.623
  bond angle:     C          C   _1     H   _1       120.185
  bond angle:     C   _2     C   _2     C            120.192
  bond angle:     C   _2     C   _2     H   _2       119.623
  bond angle:     C          C   _2     H   _2       120.185
  bond angle:     C   _1     C          C   _2       120.319
  bond angle:     C   _1     C          H            119.841
  bond angle:     C   _2     C          H            119.841
  bond angle:     C          N          O   _1       117.664
  bond angle:     C          N          O   _2       117.664
  bond angle:     O   _1     N          O   _2       124.671




 Principal moments of inertia (u*A**2) and principal axes
 --------------------------------------------------------

   IA     127.027245          0.000000    0.000000    1.000000
   IB     413.334519          1.000000    0.000000    0.000000
   IC     540.361764          0.000000    1.000000    0.000000


 Rotational constants
 --------------------

@    The molecule is planar.

               A                   B                   C

           3978.5088           1222.6876            935.2605 MHz
            0.132709            0.040784            0.031197 cm-1


@  Nuclear repulsion energy :  407.358090739207 Hartree


  Symmetry Orbitals
  -----------------

  Number of orbitals in each symmetry:         115   91   48   34


  Symmetry  A1 ( 1)

    1     C        1s         1
    2     C        1s         2
    3     C        1s         3
    4     C        1s         4
    5     C        1s         5
    6     C        2pz        8
    7     C        2pz       11
    8     C        2pz       14
    9     C        2pz       17
   10     C        3d0       20
   11     C        3d2+      22
   12     C        3d0       25
   13     C        3d2+      27
   14     C        1s        28 +   29
   15     C        1s        30 +   31
   16     C        1s        32 +   33
   17     C        1s        34 +   35
   18     C        1s        36 +   37
   19     C        2px       38 -   39
   20     C        2pz       42 +   43
   21     C        2px       44 -   45
   22     C        2pz       48 +   49
   23     C        2px       50 -   51
   24     C        2pz       54 +   55
   25     C        2px       56 -   57
   26     C        2pz       60 +   61
   27     C        3d0       66 +   67
   28     C        3d1+      68 -   69
   29     C        3d2+      70 +   71
   30     C        3d0       76 +   77
   31     C        3d1+      78 -   79
   32     C        3d2+      80 +   81
   33     C        1s        82 +   83
   34     C        1s        84 +   85
   35     C        1s        86 +   87
   36     C        1s        88 +   89
   37     C        1s        90 +   91
   38     C        2px       92 -   93
   39     C        2pz       96 +   97
   40     C        2px       98 -   99
   41     C        2pz      102 +  103
   42     C        2px      104 -  105
   43     C        2pz      108 +  109
   44     C        2px      110 -  111
   45     C        2pz      114 +  115
   46     C        3d0      120 +  121
   47     C        3d1+     122 -  123
   48     C        3d2+     124 +  125
   49     C        3d0      130 +  131
   50     C        3d1+     132 -  133
   51     C        3d2+     134 +  135
   52     C        1s       136
   53     C        1s       137
   54     C        1s       138
   55     C        1s       139
   56     C        1s       140
   57     C        2pz      143
   58     C        2pz      146
   59     C        2pz      149
   60     C        2pz      152
   61     C        3d0      155
   62     C        3d2+     157
   63     C        3d0      160
   64     C        3d2+     162
   65     N        1s       163
   66     N        1s       164
   67     N        1s       165
   68     N        1s       166
   69     N        1s       167
   70     N        2pz      170
   71     N        2pz      173
   72     N        2pz      176
   73     N        2pz      179
   74     N        3d0      182
   75     N        3d2+     184
   76     N        3d0      187
   77     N        3d2+     189
   78     O        1s       190 +  191
   79     O        1s       192 +  193
   80     O        1s       194 +  195
   81     O        1s       196 +  197
   82     O        1s       198 +  199
   83     O        2px      200 -  201
   84     O        2pz      204 +  205
   85     O        2px      206 -  207
   86     O        2pz      210 +  211
   87     O        2px      212 -  213
   88     O        2pz      216 +  217
   89     O        2px      218 -  219
   90     O        2pz      222 +  223
   91     O        3d0      228 +  229
   92     O        3d1+     230 -  231
   93     O        3d2+     232 +  233
   94     O        3d0      238 +  239
   95     O        3d1+     240 -  241
   96     O        3d2+     242 +  243
   97     H        1s       244 +  245
   98     H        1s       246 +  247
   99     H        1s       248 +  249
  100     H        2px      250 -  251
  101     H        2pz      254 +  255
  102     H        2px      256 -  257
  103     H        2pz      260 +  261
  104     H        1s       262 +  263
  105     H        1s       264 +  265
  106     H        1s       266 +  267
  107     H        2px      268 -  269
  108     H        2pz      272 +  273
  109     H        2px      274 -  275
  110     H        2pz      278 +  279
  111     H        1s       280
  112     H        1s       281
  113     H        1s       282
  114     H        2pz      285
  115     H        2pz      288


  Symmetry  B1 ( 2)

  116     C        2px        6
  117     C        2px        9
  118     C        2px       12
  119     C        2px       15
  120     C        3d1+      21
  121     C        3d1+      26
  122     C        1s        28 -   29
  123     C        1s        30 -   31
  124     C        1s        32 -   33
  125     C        1s        34 -   35
  126     C        1s        36 -   37
  127     C        2px       38 +   39
  128     C        2pz       42 -   43
  129     C        2px       44 +   45
  130     C        2pz       48 -   49
  131     C        2px       50 +   51
  132     C        2pz       54 -   55
  133     C        2px       56 +   57
  134     C        2pz       60 -   61
  135     C        3d0       66 -   67
  136     C        3d1+      68 +   69
  137     C        3d2+      70 -   71
  138     C        3d0       76 -   77
  139     C        3d1+      78 +   79
  140     C        3d2+      80 -   81
  141     C        1s        82 -   83
  142     C        1s        84 -   85
  143     C        1s        86 -   87
  144     C        1s        88 -   89
  145     C        1s        90 -   91
  146     C        2px       92 +   93
  147     C        2pz       96 -   97
  148     C        2px       98 +   99
  149     C        2pz      102 -  103
  150     C        2px      104 +  105
  151     C        2pz      108 -  109
  152     C        2px      110 +  111
  153     C        2pz      114 -  115
  154     C        3d0      120 -  121
  155     C        3d1+     122 +  123
  156     C        3d2+     124 -  125
  157     C        3d0      130 -  131
  158     C        3d1+     132 +  133
  159     C        3d2+     134 -  135
  160     C        2px      141
  161     C        2px      144
  162     C        2px      147
  163     C        2px      150
  164     C        3d1+     156
  165     C        3d1+     161
  166     N        2px      168
  167     N        2px      171
  168     N        2px      174
  169     N        2px      177
  170     N        3d1+     183
  171     N        3d1+     188
  172     O        1s       190 -  191
  173     O        1s       192 -  193
  174     O        1s       194 -  195
  175     O        1s       196 -  197
  176     O        1s       198 -  199
  177     O        2px      200 +  201
  178     O        2pz      204 -  205
  179     O        2px      206 +  207
  180     O        2pz      210 -  211
  181     O        2px      212 +  213
  182     O        2pz      216 -  217
  183     O        2px      218 +  219
  184     O        2pz      222 -  223
  185     O        3d0      228 -  229
  186     O        3d1+     230 +  231
  187     O        3d2+     232 -  233
  188     O        3d0      238 -  239
  189     O        3d1+     240 +  241
  190     O        3d2+     242 -  243
  191     H        1s       244 -  245
  192     H        1s       246 -  247
  193     H        1s       248 -  249
  194     H        2px      250 +  251
  195     H        2pz      254 -  255
  196     H        2px      256 +  257
  197     H        2pz      260 -  261
  198     H        1s       262 -  263
  199     H        1s       264 -  265
  200     H        1s       266 -  267
  201     H        2px      268 +  269
  202     H        2pz      272 -  273
  203     H        2px      274 +  275
  204     H        2pz      278 -  279
  205     H        2px      283
  206     H        2px      286


  Symmetry  B2 ( 3)

  207     C        2py        7
  208     C        2py       10
  209     C        2py       13
  210     C        2py       16
  211     C        3d1-      19
  212     C        3d1-      24
  213     C        2py       40 +   41
  214     C        2py       46 +   47
  215     C        2py       52 +   53
  216     C        2py       58 +   59
  217     C        3d2-      62 -   63
  218     C        3d1-      64 +   65
  219     C        3d2-      72 -   73
  220     C        3d1-      74 +   75
  221     C        2py       94 +   95
  222     C        2py      100 +  101
  223     C        2py      106 +  107
  224     C        2py      112 +  113
  225     C        3d2-     116 -  117
  226     C        3d1-     118 +  119
  227     C        3d2-     126 -  127
  228     C        3d1-     128 +  129
  229     C        2py      142
  230     C        2py      145
  231     C        2py      148
  232     C        2py      151
  233     C        3d1-     154
  234     C        3d1-     159
  235     N        2py      169
  236     N        2py      172
  237     N        2py      175
  238     N        2py      178
  239     N        3d1-     181
  240     N        3d1-     186
  241     O        2py      202 +  203
  242     O        2py      208 +  209
  243     O        2py      214 +  215
  244     O        2py      220 +  221
  245     O        3d2-     224 -  225
  246     O        3d1-     226 +  227
  247     O        3d2-     234 -  235
  248     O        3d1-     236 +  237
  249     H        2py      252 +  253
  250     H        2py      258 +  259
  251     H        2py      270 +  271
  252     H        2py      276 +  277
  253     H        2py      284
  254     H        2py      287


  Symmetry  A2 ( 4)

  255     C        3d2-      18
  256     C        3d2-      23
  257     C        2py       40 -   41
  258     C        2py       46 -   47
  259     C        2py       52 -   53
  260     C        2py       58 -   59
  261     C        3d2-      62 +   63
  262     C        3d1-      64 -   65
  263     C        3d2-      72 +   73
  264     C        3d1-      74 -   75
  265     C        2py       94 -   95
  266     C        2py      100 -  101
  267     C        2py      106 -  107
  268     C        2py      112 -  113
  269     C        3d2-     116 +  117
  270     C        3d1-     118 -  119
  271     C        3d2-     126 +  127
  272     C        3d1-     128 -  129
  273     C        3d2-     153
  274     C        3d2-     158
  275     N        3d2-     180
  276     N        3d2-     185
  277     O        2py      202 -  203
  278     O        2py      208 -  209
  279     O        2py      214 -  215
  280     O        2py      220 -  221
  281     O        3d2-     224 +  225
  282     O        3d1-     226 -  227
  283     O        3d2-     234 +  235
  284     O        3d1-     236 -  237
  285     H        2py      252 -  253
  286     H        2py      258 -  259
  287     H        2py      270 -  271
  288     H        2py      276 -  277

  Symmetries of electric field:  B1 (2)  B2 (3)  A1 (1)

  Symmetries of magnetic field:  B2 (3)  B1 (2)  A2 (4)


                     .---------------------------------------.
                     | Starting in Integral Section (HERMIT) |
                     `---------------------------------------'



 ***************************************************************************************
 ****************** Output from **INTEGRALS input processing (HERMIT) ******************
 ***************************************************************************************


 - Using defaults, no **INTEGRALS input found

 Default print level:        1

 Calculation of one-electron Hamiltonian integrals.

 Center of mass  (bohr):      0.000000000000      0.000000000000     -0.313294721584
 Operator center (bohr):      0.000000000000      0.000000000000      0.000000000000
 Gauge origin    (bohr):      0.000000000000      0.000000000000      0.000000000000
 Dipole origin   (bohr):      0.000000000000      0.000000000000      0.000000000000


     ************************************************************************
     ************************** Output from HERINT **************************
     ************************************************************************



                      Nuclear contribution to dipole moments
                      --------------------------------------

                 au               Debye          C m (/(10**-30)

      z    -28.06554495       -71.33549526      -237.94959930


  Time used in GABGEN     is       0.11 seconds
  Total CPU  time used in HERMIT:   0.42 seconds
  Total wall time used in HERMIT:   0.42 seconds


                        .----------------------------------.
                        | End of Integral Section (HERMIT) |
                        `----------------------------------'



                   .--------------------------------------------.
                   | Starting in Wave Function Section (SIRIUS) |
                   `--------------------------------------------'


 *** Output from Huckel module :

     Using EWMO model:          F
     Using EHT  model:          T
     Number of Huckel orbitals each symmetry:   24   17    6    3

 Huckel EHT eigenvalues for symmetry :  1
          -20.695501     -15.702550     -11.414228     -11.393470     -11.375933
          -11.362259      -1.725380      -1.556742      -1.195769      -0.939307
           -0.820013      -0.781348      -0.649925      -0.590350      -0.494264
           -0.431439      -0.330621      -0.257542      -0.229061      -0.214003
           -0.206209      -0.179752      -0.166642      -0.160932

 Huckel EHT eigenvalues for symmetry :  2
          -20.700503     -11.396439     -11.377834      -1.390745      -1.206640
           -0.880177      -0.647051      -0.568925      -0.527840      -0.481916
           -0.415181      -0.272261      -0.213664      -0.202888      -0.176324
           -0.165534      -0.163541

 Huckel EHT eigenvalues for symmetry :  3
           -0.791639      -0.676689      -0.464487      -0.387357      -0.283444
           -0.237039

 Huckel EHT eigenvalues for symmetry :  4
           -0.592698      -0.460278      -0.288869

 **********************************************************************
 *SIRIUS* a direct, restricted step, second order MCSCF program       *
 **********************************************************************

 
     Date and time (Linux)  : Sun Feb 23 22:33:29 2020
     Host name              : Lab2-333-NPs                            

 Title lines from ".mol" input file:
      nitrobenzene                                                           
      Generated by the Dalton Input File Plugin for Avogadro                 

 Print level on unit LUPRI =   2 is   0
 Print level on unit LUW4  =   2 is   5

@    MC-SCF optimization.

@    Multi-configurational response calculation.
@              Type: complete active space calculation (CAS).

@    This is a combination run starting with
@              a restricted, closed shell Hartree-Fock calculation
@              an MP2 calculation

 Fock matrices are calculated directly without use of integrals on disk.

 Initial molecular orbitals are obtained according to
 ".MOSTART EHT   " input option

     Wave function specification
     ============================
@    Wave function type        --- MC-SCF ---
@    Number of closed shell electrons          54
@    Number of electrons in active shells      10
@    Total charge of the molecule               0

@    Spin multiplicity and 2 M_S                1         0
@    Total number of symmetries                 4 (point group: C2v)
@    Reference state symmetry                   1 (irrep name : A1 )

     Orbital specifications
     ======================
@    Abelian symmetry species          All |    1    2    3    4
@                                          |  A1   B1   B2   A2 
                                       --- |  ---  ---  ---  ---
@    Inactive orbitals                  27 |   15   10    2    0
@    Active orbitals                     7 |    1    1    2    3
@    Secondary orbitals                254 |   99   80   44   31
@    Total number of orbitals          288 |  115   91   48   34
@    Number of basis functions         288 |  115   91   48   34

      ** Automatic occupation of RHF orbitals **

      -- Initial occupation of symmetries is determined from extended Huckel guess.           
      -- Initial occupation of symmetries is :
@    Occupied SCF orbitals              32 |   16   11    3    2

     Optimization information
     ========================
@    Number of determinants                 115
@    Number of orbital rotations           2762
     ------------------------------------------
@    Total number of variables             2877

     Maximum number of macro iterations      25
     Maximum number of micro iterations     600
     Threshold for MCSCF gradient      1.00D-05
     Number of initial trial vectors          1
     Number of initial CI iterations          3
     Number of simultaneous trial vectors     1

@    This calculation converges to the lowest state for the specified symmetry and spin species.

     Maximum number of NEO/NR iterations  24

    INFORMATION: Switched to "new" integral transformation (from 1988 ;-) )
    because more than 255 basis functions.


 ***********************************************
 ***** DIIS acceleration of SCF iterations *****
 ***********************************************

 C1-DIIS algorithm; max error vectors =    8

 Automatic occupation of symmetries with  64 electrons.

 Iter     Total energy    Error norm  Delta(E)    SCF occupation
 -----------------------------------------------------------------------------
   1  Screening settings (-IFTHRS, JTDIIS, DIFDEN, times)   -8    1    T  2.76D+01  2.76D+01
@  1  -432.302175593       6.37D+00  -4.32D+02    16  11   3   2
      Virial theorem: -V/T =      1.999448
@    MULPOP   C       0.27; C   _1  0.28; C   _2  0.28; C   _1  0.25; C   _2  0.25; C       0.34; N       1.27; O   _1 -1.00; O   _2 -1.00; H   _1 -0.20; 
@             H   _2 -0.20; H   _1 -0.18; H   _2 -0.18; H      -0.19; 
   1  Level shift: doubly occupied orbital energies shifted by -2.00D-01
 -----------------------------------------------------------------------------
   2  Screening settings (-IFTHRS, JTDIIS, DIFDEN, times)   -8    2    T  2.77D+01  2.77D+01
@  2  -433.862951523       2.80D+00  -1.56D+00    16  11   3   2
      Virial theorem: -V/T =      2.001889
@    MULPOP   C       0.77; C   _1  0.40; C   _2  0.40; C   _1  0.40; C   _2  0.40; C       0.35; N       0.32; O   _1 -0.52; O   _2 -0.52; H   _1 -0.40; 
@             H   _2 -0.40; H   _1 -0.40; H   _2 -0.40; H      -0.41; 
   2  Level shift: doubly occupied orbital energies shifted by -1.00D-01
 -----------------------------------------------------------------------------
   3  Screening settings (-IFTHRS, JTDIIS, DIFDEN, times)   -8    3    T  2.76D+01  2.76D+01
@  3  -434.198741551       7.32D-01  -3.36D-01    16  11   3   2
      Virial theorem: -V/T =      2.001278
@    MULPOP   C       1.45; C   _1  0.29; C   _2  0.29; C   _1  0.49; C   _2  0.49; C       0.29; N       0.69; O   _1 -0.88; O   _2 -0.88; H   _1 -0.45; 
@             H   _2 -0.45; H   _1 -0.44; H   _2 -0.44; H      -0.44; 
   3  Level shift: doubly occupied orbital energies shifted by -5.00D-02
 -----------------------------------------------------------------------------
   4  Screening settings (-IFTHRS, JTDIIS, DIFDEN, times)   -8    4    T  2.74D+01  2.75D+01
@  4  -434.225336547       1.81D-01  -2.66D-02    16  11   3   2
      Virial theorem: -V/T =      2.003054
@    MULPOP   C       1.51; C   _1  0.26; C   _2  0.26; C   _1  0.55; C   _2  0.55; C       0.29; N       0.53; O   _1 -0.84; O   _2 -0.84; H   _1 -0.45; 
@             H   _2 -0.45; H   _1 -0.46; H   _2 -0.46; H      -0.46; 
   4  Level shift: doubly occupied orbital energies shifted by -1.25D-02
 -----------------------------------------------------------------------------
   5  Screening settings (-IFTHRS, JTDIIS, DIFDEN, times)  -10    5    F  2.79D+01  2.79D+01
@  5  -434.227989875       5.37D-02  -2.65D-03    16  11   3   2
      Virial theorem: -V/T =      2.002475
@    MULPOP   C       1.55; C   _1  0.24; C   _2  0.24; C   _1  0.54; C   _2  0.54; C       0.28; N       0.52; O   _1 -0.85; O   _2 -0.85; H   _1 -0.44; 
@             H   _2 -0.44; H   _1 -0.44; H   _2 -0.44; H      -0.45; 
 -----------------------------------------------------------------------------
   6  Screening settings (-IFTHRS, JTDIIS, DIFDEN, times)  -10    6    T  2.76D+01  2.77D+01
@  6  -434.228325996       1.45D-02  -3.36D-04    16  11   3   2
      Virial theorem: -V/T =      2.002409
@    MULPOP   C       1.57; C   _1  0.23; C   _2  0.23; C   _1  0.54; C   _2  0.54; C       0.28; N       0.50; O   _1 -0.85; O   _2 -0.85; H   _1 -0.44; 
@             H   _2 -0.44; H   _1 -0.44; H   _2 -0.44; H      -0.44; 
 -----------------------------------------------------------------------------
   7  Screening settings (-IFTHRS, JTDIIS, DIFDEN, times)  -13    7    F  2.81D+01  2.81D+01
@  7  -434.228355381       5.60D-03  -2.94D-05    16  11   3   2
      Virial theorem: -V/T =      2.002441
@    MULPOP   C       1.58; C   _1  0.23; C   _2  0.23; C   _1  0.54; C   _2  0.54; C       0.27; N       0.50; O   _1 -0.85; O   _2 -0.85; H   _1 -0.44; 
@             H   _2 -0.44; H   _1 -0.44; H   _2 -0.44; H      -0.44; 
 -----------------------------------------------------------------------------
   8  Screening settings (-IFTHRS, JTDIIS, DIFDEN, times)  -13    8    T  2.80D+01  2.80D+01
@  8  -434.228359516       2.04D-03  -4.14D-06    16  11   3   2
      Virial theorem: -V/T =      2.002429
@    MULPOP   C       1.58; C   _1  0.23; C   _2  0.23; C   _1  0.54; C   _2  0.54; C       0.28; N       0.50; O   _1 -0.85; O   _2 -0.85; H   _1 -0.44; 
@             H   _2 -0.44; H   _1 -0.44; H   _2 -0.44; H      -0.44; 
 -----------------------------------------------------------------------------
   9  Screening settings (-IFTHRS, JTDIIS, DIFDEN, times)  -13    9    T  2.79D+01  2.79D+01
@  9  -434.228360031       7.10D-04  -5.15D-07    16  11   3   2
      Virial theorem: -V/T =      2.002427
@    MULPOP   C       1.58; C   _1  0.23; C   _2  0.23; C   _1  0.54; C   _2  0.54; C       0.28; N       0.50; O   _1 -0.85; O   _2 -0.85; H   _1 -0.44; 
@             H   _2 -0.44; H   _1 -0.44; H   _2 -0.44; H      -0.44; 
 -----------------------------------------------------------------------------
  10  Screening settings (-IFTHRS, JTDIIS, DIFDEN, times)  -13   10    T  2.79D+01  2.79D+01
@ 10  -434.228360108       2.80D-04  -7.74D-08    16  11   3   2
      Virial theorem: -V/T =      2.002428
@    MULPOP   C       1.58; C   _1  0.23; C   _2  0.23; C   _1  0.54; C   _2  0.54; C       0.28; N       0.50; O   _1 -0.85; O   _2 -0.85; H   _1 -0.44; 
@             H   _2 -0.44; H   _1 -0.44; H   _2 -0.44; H      -0.44; 
 -----------------------------------------------------------------------------
  11  Screening settings (-IFTHRS, JTDIIS, DIFDEN, times)  -13   11    T  2.79D+01  2.79D+01
@ 11  -434.228360126       1.10D-04  -1.80D-08    16  11   3   2
      Virial theorem: -V/T =      2.002428
@    MULPOP   C       1.58; C   _1  0.23; C   _2  0.23; C   _1  0.54; C   _2  0.54; C       0.28; N       0.50; O   _1 -0.85; O   _2 -0.85; H   _1 -0.44; 
@             H   _2 -0.44; H   _1 -0.44; H   _2 -0.44; H      -0.44; 
 -----------------------------------------------------------------------------
  12  Screening settings (-IFTHRS, JTDIIS, DIFDEN, times)  -13   12    T  2.79D+01  2.79D+01
@ 12  -434.228360130       4.99D-05  -3.51D-09    16  11   3   2
      Virial theorem: -V/T =      2.002428
@    MULPOP   C       1.58; C   _1  0.23; C   _2  0.23; C   _1  0.54; C   _2  0.54; C       0.28; N       0.50; O   _1 -0.85; O   _2 -0.85; H   _1 -0.44; 
@             H   _2 -0.44; H   _1 -0.44; H   _2 -0.44; H      -0.44; 
 -----------------------------------------------------------------------------
  13  Screening settings (-IFTHRS, JTDIIS, DIFDEN, times)  -13   13    T  2.78D+01  2.78D+01
@ 13  -434.228360130       2.42D-05  -5.67D-10    16  11   3   2
      Virial theorem: -V/T =      2.002428
@    MULPOP   C       1.58; C   _1  0.23; C   _2  0.23; C   _1  0.54; C   _2  0.54; C       0.28; N       0.50; O   _1 -0.85; O   _2 -0.85; H   _1 -0.44; 
@             H   _2 -0.44; H   _1 -0.44; H   _2 -0.44; H      -0.44; 
 -----------------------------------------------------------------------------
  14  Screening settings (-IFTHRS, JTDIIS, DIFDEN, times)  -13   14    T  2.78D+01  2.78D+01
@ 14  -434.228360130       9.78D-06  -1.98D-10    16  11   3   2
      Virial theorem: -V/T =      2.002428
@    MULPOP   C       1.58; C   _1  0.23; C   _2  0.23; C   _1  0.54; C   _2  0.54; C       0.28; N       0.50; O   _1 -0.85; O   _2 -0.85; H   _1 -0.44; 
@             H   _2 -0.44; H   _1 -0.44; H   _2 -0.44; H      -0.44; 
 -----------------------------------------------------------------------------
  15  Screening settings (-IFTHRS, JTDIIS, DIFDEN, times)  -13   15    T  2.76D+01  2.76D+01
@ 15  -434.228360130       3.75D-06  -1.84D-11    16  11   3   2
      Virial theorem: -V/T =      2.002428
@    MULPOP   C       1.58; C   _1  0.23; C   _2  0.23; C   _1  0.54; C   _2  0.54; C       0.28; N       0.50; O   _1 -0.85; O   _2 -0.85; H   _1 -0.44; 
@             H   _2 -0.44; H   _1 -0.44; H   _2 -0.44; H      -0.44; 
 -----------------------------------------------------------------------------
  16  Screening settings (-IFTHRS, JTDIIS, DIFDEN, times)  -13   16    T  2.75D+01  2.75D+01
@ 16  -434.228360130       1.42D-06  -7.96D-12    16  11   3   2
      Virial theorem: -V/T =      2.002428
@    MULPOP   C       1.58; C   _1  0.23; C   _2  0.23; C   _1  0.54; C   _2  0.54; C       0.28; N       0.50; O   _1 -0.85; O   _2 -0.85; H   _1 -0.44; 
@             H   _2 -0.44; H   _1 -0.44; H   _2 -0.44; H      -0.44; 
 -----------------------------------------------------------------------------
  17  Screening settings (-IFTHRS, JTDIIS, DIFDEN, times)  -13   17    T  2.74D+01  2.74D+01
@ 17  -434.228360130       5.41D-07  -2.27D-12    16  11   3   2

@ *** DIIS converged in  17 iterations !
@     Converged SCF energy, gradient:   -434.228360130394    5.41D-07
    - total time used in SIRFCK :              0.00 seconds

 --- Writing SIRIFC interface file

 CPU and wall time for SCF :     472.547     472.608


 ----- Output from SIRIUS MP2 module -----

 Reference: H.J.Aa.Jensen, P.Jorgensen, H.Agren, and J.Olsen,
            J. Chem. Phys. 88, 3834 (1988); 89, 5354 (1988)

 Checking that the closed shell orbitals are canonical Hartree-Fock orbitals

    Number of electrons  :   64
    Closed shell orbitals:   16   11    3    2

 Generating Fock matrix

 Hartree-Fock electronic energy:        -841.586450869605
 Hartree-Fock total      energy:        -434.228360130398

 Hartree-Fock orbital energies, symmetry 1 ( A1 ),   16 occupied SCF orbitals

       -20.61669945   -15.86370285   -11.33082488   -11.28568309   -11.28111912
       -11.27587345    -1.60612990    -1.19913069    -1.07931141    -0.95156166
        -0.83556074    -0.77959839    -0.71139689    -0.65401326    -0.56024351
        -0.48563027     0.02649019     0.04406184     0.06230266     0.10462516
         0.12910574     0.13491803     0.15120424     0.15579854     0.17304341
         0.18059441     0.21355143     0.24883157     0.28522366     0.28831128
         0.31083173     0.32383055     0.34420768     0.35039731     0.36973985
         0.39450343     0.41231554     0.42180650     0.44834254     0.48393403
         0.51043642     0.56043028     0.57886362     0.58777289     0.62929466
         0.64140671     0.65826307     0.67383115     0.72172585     0.72877465
         0.74259678     0.83546489     0.88168484     0.92470046     0.95131281
         0.96339385     1.00445015     1.05224957     1.07275854     1.13315025
         1.27289469     1.35509423     1.37236198     1.45211167     1.49167861
         1.51080640     1.54357629     1.56664622     1.57421065     1.61668235
         1.66752529     1.71168272     1.74818328     1.78120631     1.85924140
         1.93979322     1.94989840     1.99709416     2.01639233     2.11293913
         2.15417981     2.24435889     2.28729880     2.36818941     2.38154867
         2.43925518     2.53555132     2.66087206     2.76651830     2.83308561
         2.87596801     2.95246945     3.03520914     3.12920318     3.26665353
         3.41590722     3.74999413     3.96893806     4.07839868     4.22547457
        19.78621871    20.31808185    20.44286422    20.61769033    23.25755282
        23.35302526    23.42026793    23.79064805    23.89444370    24.10997970
        27.03399884    31.24238774    35.77309294    39.70699956    39.81601800

 Hartree-Fock orbital energies, symmetry 2 ( B1 ),   11 occupied SCF orbitals

       -20.61675229   -11.28571804   -11.27602301    -1.40366439    -1.05699175
        -0.86774468    -0.72831392    -0.66067702    -0.62718561    -0.53379674
        -0.49724434     0.03581868     0.05984315     0.12991206     0.13345160
         0.15336496     0.17401101     0.18317273     0.21339048     0.26223767
         0.28905620     0.31355731     0.33406435     0.35835886     0.36948402
         0.39350919     0.42148531     0.43597065     0.46533946     0.56163130
         0.57769164     0.58628934     0.64751333     0.66773132     0.67688119
         0.69918049     0.75668004     0.76486586     0.82852241     0.84455810
         0.85761778     0.92006814     1.01746110     1.13999096     1.19777792
         1.24501123     1.32798489     1.38911568     1.40328692     1.48471713
         1.56302590     1.58515940     1.61105806     1.63537964     1.67816996
         1.75119017     1.77034191     1.78497989     1.88044614     1.93515729
         1.98840737     2.06884835     2.21338812     2.25346731     2.33674220
         2.34045863     2.38371655     2.51915783     2.55547853     2.80845021
         2.89760422     2.94479435     3.05284874     3.26288289     3.31985162
         3.41117698     3.74328151     3.84009218     4.19797042    20.29208997
        20.47355714    22.88210400    23.33156397    23.38012699    23.93655935
        24.11756670    24.30369211    31.43921306    35.52075062    39.61773746
        40.01889494

 Hartree-Fock orbital energies, symmetry 3 ( B2 ),    3 occupied SCF orbitals

        -0.71261253    -0.54016872    -0.37943003     0.04308511     0.10631926
         0.12209406     0.13872406     0.18533231     0.18874534     0.24263886
         0.31918814     0.33842892     0.37409330     0.44155154     0.53113111
         0.58594085     0.64258195     0.70658737     0.79794227     0.84018291
         0.86862139     0.91522046     0.92465060     0.98000805     1.13954604
         1.27021547     1.28991285     1.44983738     1.47394036     1.60738382
         1.67250953     1.70358143     1.83385636     1.89359271     1.97049844
         2.08050756     2.17455889     2.29392489     2.54258919     2.64722979
         3.66199102     3.78045746    22.53679791    22.68016949    22.82040178
        23.02329747    30.51784732    39.41356990

 Hartree-Fock orbital energies, symmetry 4 ( A2 ),    2 occupied SCF orbitals

        -0.45635738    -0.37111010     0.08441327     0.13097775     0.18572703
         0.29552208     0.41243117     0.48983958     0.54570895     0.65721703
         0.73520871     0.89564381     0.89872186     0.94093462     1.03972854
         1.07978714     1.20989128     1.23124718     1.32297686     1.48025856
         1.67674703     1.68917087     1.86550466     1.99685054     2.12043859
         2.19634640     2.34859296     2.46206595     2.59722565     3.65629501
         3.99714720    22.69075561    22.85619754    39.48845526

    E(LUMO) :     0.02649019   (in symmetry 1)
  - E(HOMO) :    -0.37111010   (in symmetry 4)
  --------------------------
    gap     :     0.39760030

---> (Re)generating AOTWOINT


     ************************************************************************
     ************************** Output from HERINT **************************
     ************************************************************************


 Threshold for neglecting two-electron integrals:  1.00D-12
 HERMIT - Number of two-electron integrals written:   202395347 ( 23.4% )
 HERMIT - Megabytes written:                           3089.599

  Time used in TWOINT     is      39.33 seconds

 2-el. integral transformation level 5: Total CPU and WALL times (sec)     408.219     410.085

 MP2 move   1.002309 electrons to unoccupied HF orbitals


@   Hartree-Fock total energy   :          -434.2283601304
@   + MP2 contribution          :            -1.7291352440
@   = MP2 second order energy   :          -435.9574953744

 Natural orbital occupation numbers, symmetry 1 (irrep A1 )
 Sum =    32.00851339; RHF =    32.00000000; Difference =     0.00851339

         1.99929055     1.99907724     1.99876194     1.99875906     1.99875312
         1.99874982     1.98680776     1.98411454     1.97923017     1.97169455
         1.96868928     1.96777462     1.96534059     1.96207811     1.95493818
         1.94269940     0.04289171     0.04120175     0.02529627     0.02394828
         0.01923171     0.01844530     0.01757731     0.01641257     0.01378729
         0.01266112     0.01167843     0.00984307     0.00856524     0.00781131
         0.00742706     0.00675217     0.00555772     0.00465364     0.00305282
         0.00295386     0.00273807     0.00264430     0.00229359     0.00209403
         0.00183092     0.00167358     0.00165429     0.00132686     0.00122898
         0.00116412     0.00105897     0.00096690     0.00071480     0.00065452
         0.00061219     0.00053411     0.00049908     0.00046244     0.00043985
         0.00041648     0.00041459     0.00038560     0.00037386     0.00035282
         0.00034293     0.00032661     0.00031351     0.00029513     0.00027079
         0.00026416     0.00022636     0.00022115     0.00020905     0.00019752
         0.00018918     0.00018581     0.00017666     0.00017290     0.00016523
         0.00016111     0.00015486     0.00015051     0.00013951     0.00013404
         0.00012812     0.00012492     0.00012215     0.00011102     0.00010415
         0.00009419     0.00007883     0.00007217     0.00005995     0.00005540
         0.00005279     0.00003938     0.00003533     0.00002966     0.00002108
         0.00001706     0.00001435     0.00001328     0.00001208     0.00000953
         0.00000883     0.00000866     0.00000748     0.00000350     0.00000321
         0.00000211     0.00000112     0.00000059     0.00000037     0.00000020
         0.00000015    -0.00000000    -0.00000010    -0.00000051    -0.00005716

 Natural orbital occupation numbers, symmetry 2 (irrep B1 )
 Sum =    21.95285003; RHF =    22.00000000; Difference =    -0.04714997

         1.99929045     1.99875747     1.99875123     1.98407538     1.98003416
         1.97268370     1.96207022     1.96024539     1.95471674     1.95416192
         1.94630713     0.03784689     0.02539266     0.02390635     0.01913442
         0.01659409     0.01592556     0.01537202     0.01134190     0.01057539
         0.00909456     0.00766059     0.00597342     0.00538305     0.00520258
         0.00397692     0.00312358     0.00273306     0.00237716     0.00213251
         0.00169726     0.00162696     0.00152599     0.00132263     0.00121710
         0.00103715     0.00098470     0.00070450     0.00063966     0.00056936
         0.00048775     0.00044113     0.00042223     0.00037082     0.00035745
         0.00033341     0.00030593     0.00029317     0.00026977     0.00025656
         0.00024350     0.00021220     0.00019724     0.00018737     0.00018250
         0.00017747     0.00017088     0.00016863     0.00016055     0.00015283
         0.00014421     0.00013429     0.00013060     0.00012583     0.00011906
         0.00011540     0.00009448     0.00008837     0.00007073     0.00005231
         0.00004623     0.00003667     0.00003053     0.00003008     0.00002268
         0.00001549     0.00001396     0.00001131     0.00001071     0.00000840
         0.00000470     0.00000383     0.00000177     0.00000124     0.00000062
         0.00000032     0.00000014    -0.00000001    -0.00000019    -0.00000068
        -0.00002026

 Natural orbital occupation numbers, symmetry 3 (irrep B2 )
 Sum =     6.07777688; RHF =     6.00000000; Difference =     0.07777688

         1.94981620     1.94455975     1.90897617     0.10034009     0.06901917
         0.02975744     0.01084449     0.01030466     0.00875379     0.00790468
         0.00617347     0.00526665     0.00439429     0.00391308     0.00343938
         0.00307976     0.00162338     0.00144686     0.00098021     0.00088690
         0.00087308     0.00066397     0.00058350     0.00049339     0.00046974
         0.00042287     0.00033674     0.00028961     0.00024673     0.00022835
         0.00019994     0.00019618     0.00018984     0.00017711     0.00015359
         0.00013056     0.00012039     0.00011106     0.00009697     0.00008315
         0.00008003     0.00006475     0.00003800     0.00002136     0.00001059
         0.00000845     0.00000528     0.00000121

 Natural orbital occupation numbers, symmetry 4 (irrep A2 )
 Sum =     3.96085970; RHF =     4.00000000; Difference =    -0.03914030

         1.91583357     1.90867416     0.06692853     0.01429649     0.01043087
         0.00935323     0.00787982     0.00569941     0.00510257     0.00407605
         0.00360475     0.00149947     0.00119191     0.00093933     0.00077784
         0.00072637     0.00067251     0.00056495     0.00040699     0.00037187
         0.00033575     0.00029571     0.00022236     0.00019693     0.00016835
         0.00013329     0.00011705     0.00010359     0.00009329     0.00006987
         0.00004881     0.00002080     0.00001771     0.00000552

 Time used for MP2 natural orbitals :     439.750 CPU seconds,     441.646 wall seconds.

 CPU and wall time for MP2 :     439.750     441.646


        SIRIUS MCSCF optimization (SIROPT)
 ================================================


 Fock matrix screening setting for SIRCNO: IFTHRS =    9


 ----- Output from SIRIUS CI module (CICTL) -----




 2-el. integral transformation level 0: Total CPU and WALL times (sec)      99.516      99.510


 --- SIRCI.CIST1: plus combination of all degenerate
                 configurations is used as start vectors.


 (CIST1) 8 lowest diagonal elements:

 Element no. Config.no.    Active energy      Total energy

         1 :         67    -17.2290289454   -434.2090146184
         2 :         69    -16.9375748599   -433.9175605329
         3 :         81    -16.9375748599   -433.9175605329
         4 :         68    -16.8650520343   -433.8450377074
         5 :         74    -16.8650520343   -433.8450377074
         6 :         78    -16.7878912277   -433.7678769008
         7 :         96    -16.7878912277   -433.7678769008
         8 :         71    -16.7305416597   -433.7105273328


 Convergence threshold for CI optimization :     0.00000500



 *** Reached maximum number of CI iterations:    3
              1 CI roots are not converged.


@ Final CI energies and residuals in symmetry 1 (irrep A1 )
@    1     -434.258959518784991       4.50D-03

   --- OUTPUT FROM SIRCNO     Keyword = FD+NO 


 Occupations of CAS natural orbitals:

 Symmetry  1 ( irrep A1  in C2v )

   1.999813451

 Symmetry  2 ( irrep B1  in C2v )

   1.999818151

 Symmetry  3 ( irrep B2  in C2v )

   1.989806101   0.089201446

 Symmetry  4 ( irrep A2  in C2v )

   1.912919269   1.969452528   0.038989054


 --- MACRO ITERATION  1 ---
 --------------------------

 2-el. integral transformation level 3: Total CPU and WALL times (sec)     100.938     100.937

 Fock matrix screening setting for this macro iteration: 10^( -9)

 Total MCSCF energy       :          -434.258959518413747  (MACRO    1)

 - Nuclear repulsion      :           407.358090739206716
 - Inactive energy        :          -824.338076413247563
 - Active energy          :           -17.278973844372899

 Norm of total gradient   :             0.531085846267
 -    of CI gradient      :             0.008996773620
 -    of orbital gradient :             0.531009636607
      Virial theorem: -V/T =      2.001243
@    MULPOP   C       1.26; C   _1  0.36; C   _2  0.36; C   _1  0.52; C   _2  0.52; C       0.34; N       0.34; O   _1 -0.65; O   _2 -0.65; H   _1 -0.49; 
@             H   _2 -0.49; H   _1 -0.47; H   _2 -0.47; H      -0.47; 

 Residual norm when dim(red L) =   4
 NEO root     CSF        orbital          total
    1     0.06768768     0.02802440     0.07325973 converged

 (NEONEX) NEO vector is converged.

   --- OUTPUT FROM SIRCNO     Keyword = FD+NO 


 Occupations of CAS natural orbitals:

 Symmetry  1 ( irrep A1  in C2v )

   1.999813451

 Symmetry  2 ( irrep B1  in C2v )

   1.999818151

 Symmetry  3 ( irrep B2  in C2v )

   1.989806101   0.089201446

 Symmetry  4 ( irrep A2  in C2v )

   1.912919269   1.969452528   0.038989054


 --- MACRO ITERATION  2 ---
 --------------------------

 2-el. integral transformation level 3: Total CPU and WALL times (sec)     100.906     100.904

 Fock matrix screening setting for this macro iteration: 10^( -9)

 Total MCSCF energy       :          -434.278839633449138  (MACRO    2)

 - Nuclear repulsion      :           407.358090739206716
 - Inactive energy        :          -824.334206001661869
 - Active energy          :           -17.302724370993996

 Norm of total gradient   :             0.058836646779
 -    of CI gradient      :             0.051252716661
 -    of orbital gradient :             0.028894809899
      Virial theorem: -V/T =      2.002242
@    MULPOP   C       1.63; C   _1  0.21; C   _2  0.21; C   _1  0.53; C   _2  0.53; C       0.28; N       0.42; O   _1 -0.80; O   _2 -0.80; H   _1 -0.44; 
@             H   _2 -0.44; H   _1 -0.44; H   _2 -0.44; H      -0.44; 

 (SIRNEO) iteration (  2,  7)
 Micro iteration termination criterion met, EVAL(ISTATE+1) = -4.64D-04

   --- OUTPUT FROM SIRCNO     Keyword = FD+NO 


 Occupations of CAS natural orbitals:

 Symmetry  1 ( irrep A1  in C2v )

   1.999683082

 Symmetry  2 ( irrep B1  in C2v )

   1.998539615

 Symmetry  3 ( irrep B2  in C2v )

   1.989276072   0.127220424

 Symmetry  4 ( irrep A2  in C2v )

   1.874879042   1.964267766   0.046134000


 --- MACRO ITERATION  3 ---
 --------------------------

 2-el. integral transformation level 3: Total CPU and WALL times (sec)     102.094     102.122

 Fock matrix screening setting for this macro iteration: 10^( -9)

 Total MCSCF energy       :          -434.280769941244500  (MACRO    3)

 - Nuclear repulsion      :           407.358090739206716
 - Inactive energy        :          -824.823621451931103
 - Active energy          :           -16.815239228520095

 Norm of total gradient   :             0.022801405519
 -    of CI gradient      :             0.014271013056
 -    of orbital gradient :             0.017783202187
      Virial theorem: -V/T =      2.002134
@    MULPOP   C       1.62; C   _1  0.22; C   _2  0.22; C   _1  0.53; C   _2  0.53; C       0.29; N       0.39; O   _1 -0.78; O   _2 -0.78; H   _1 -0.45; 
@             H   _2 -0.45; H   _1 -0.45; H   _2 -0.45; H      -0.45; 

 (SIRNEO) iteration (  3,  6)
 Micro iteration termination criterion met, EVAL(ISTATE+1) = -1.22D-04

   --- OUTPUT FROM SIRCNO     Keyword = FD+NO 


 Occupations of CAS natural orbitals:

 Symmetry  1 ( irrep A1  in C2v )

   1.999725310

 Symmetry  2 ( irrep B1  in C2v )

   1.999031366

 Symmetry  3 ( irrep B2  in C2v )

   1.989365999   0.123999868

 Symmetry  4 ( irrep A2  in C2v )

   1.877569692   1.964818504   0.045489261


 --- MACRO ITERATION  4 ---
 --------------------------

 2-el. integral transformation level 3: Total CPU and WALL times (sec)     101.953     101.950

 Fock matrix screening setting for this macro iteration: 10^( -9)

 Total MCSCF energy       :          -434.281169123944608  (MACRO    4)

 - Nuclear repulsion      :           407.358090739206716
 - Inactive energy        :          -823.971850433276245
 - Active energy          :           -17.667409429875061

 Norm of total gradient   :             0.016823071372
 -    of CI gradient      :             0.012333902276
 -    of orbital gradient :             0.011440742328
      Virial theorem: -V/T =      2.002145
@    MULPOP   C       1.62; C   _1  0.22; C   _2  0.22; C   _1  0.52; C   _2  0.52; C       0.29; N       0.40; O   _1 -0.78; O   _2 -0.78; H   _1 -0.45; 
@             H   _2 -0.45; H   _1 -0.45; H   _2 -0.45; H      -0.45; 

 Residual norm when dim(red L) =  12
 NEO root     CSF        orbital          total
    1     0.00195390     0.00139908     0.00240316 converged

 (NEONEX) NEO vector is converged.

   --- OUTPUT FROM SIRCNO     Keyword = FD+NO 


 Occupations of CAS natural orbitals:

 Symmetry  1 ( irrep A1  in C2v )

   1.998936603

 Symmetry  2 ( irrep B1  in C2v )

   1.999139749

 Symmetry  3 ( irrep B2  in C2v )

   1.989147528   0.125765062

 Symmetry  4 ( irrep A2  in C2v )

   1.876526352   1.964530186   0.045954520


 --- MACRO ITERATION  5 ---
 --------------------------

 2-el. integral transformation level 3: Total CPU and WALL times (sec)     102.156     102.165

 Fock matrix screening setting for this macro iteration: 10^( -9)

 Total MCSCF energy       :          -434.281695406718256  (MACRO    5)

 - Nuclear repulsion      :           407.358090739206716
 - Inactive energy        :          -823.912484866703721
 - Active energy          :           -17.727301279221262

 Norm of total gradient   :             0.006919086880
 -    of CI gradient      :             0.006016541148
 -    of orbital gradient :             0.003416869308
      Virial theorem: -V/T =      2.002146
@    MULPOP   C       1.62; C   _1  0.22; C   _2  0.22; C   _1  0.52; C   _2  0.52; C       0.29; N       0.40; O   _1 -0.78; O   _2 -0.78; H   _1 -0.45; 
@             H   _2 -0.45; H   _1 -0.45; H   _2 -0.45; H      -0.45; 

 Residual norm when dim(red L) =  14
 NEO root     CSF        orbital          total
    1     0.00062575     0.00038327     0.00073380 converged

 (NEONEX) NEO vector is converged.

   --- OUTPUT FROM SIRCNO     Keyword = FD+NO 


 Occupations of CAS natural orbitals:

 Symmetry  1 ( irrep A1  in C2v )

   1.998050368

 Symmetry  2 ( irrep B1  in C2v )

   1.999537130

 Symmetry  3 ( irrep B2  in C2v )

   1.989082510   0.124045362

 Symmetry  4 ( irrep A2  in C2v )

   1.878736861   1.964562038   0.045985732


 --- MACRO ITERATION  6 ---
 --------------------------

 2-el. integral transformation level 3: Total CPU and WALL times (sec)     101.797     101.810

 Fock matrix screening setting for this macro iteration: 10^( -9)

 Total MCSCF energy       :          -434.281768895151572  (MACRO    6)

 - Nuclear repulsion      :           407.358090739206716
 - Inactive energy        :          -823.866632903045456
 - Active energy          :           -17.773226731312846

 Norm of total gradient   :             0.013376105233
 -    of CI gradient      :             0.013216156642
 -    of orbital gradient :             0.002062376011
      Virial theorem: -V/T =      2.002149
@    MULPOP   C       1.62; C   _1  0.22; C   _2  0.22; C   _1  0.52; C   _2  0.52; C       0.29; N       0.40; O   _1 -0.78; O   _2 -0.78; H   _1 -0.45; 
@             H   _2 -0.45; H   _1 -0.45; H   _2 -0.45; H      -0.44; 

 Residual norm when dim(red L) =   9
 NEO root     CSF        orbital          total
    1     0.00070694     0.00042167     0.00082314 converged

 (NEONEX) NEO vector is converged.

   --- OUTPUT FROM SIRCNO     Keyword = FD+NO 


 Occupations of CAS natural orbitals:

 Symmetry  1 ( irrep A1  in C2v )

   1.998476009

 Symmetry  2 ( irrep B1  in C2v )

   1.999469804

 Symmetry  3 ( irrep B2  in C2v )

   1.989102082   0.123700831

 Symmetry  4 ( irrep A2  in C2v )

   1.878723927   1.964609564   0.045917781


 --- MACRO ITERATION  7 ---
 --------------------------

 2-el. integral transformation level 3: Total CPU and WALL times (sec)     102.453     102.491

 Fock matrix screening setting for this macro iteration: 10^( -9)

 Total MCSCF energy       :          -434.281849508766527  (MACRO    7)

 - Nuclear repulsion      :           407.358090739206716
 - Inactive energy        :          -823.826303641263394
 - Active energy          :           -17.813636606709824

 Norm of total gradient   :             0.002254155638
 -    of CI gradient      :             0.002199772924
 -    of orbital gradient :             0.000492155183
      Virial theorem: -V/T =      2.002150
@    MULPOP   C       1.62; C   _1  0.22; C   _2  0.22; C   _1  0.52; C   _2  0.52; C       0.29; N       0.40; O   _1 -0.78; O   _2 -0.78; H   _1 -0.45; 
@             H   _2 -0.45; H   _1 -0.45; H   _2 -0.45; H      -0.44; 

 Residual norm when dim(red L) =  24
 NEO root     CSF        orbital          total
    1     0.00000299     0.00000429     0.00000523 converged

 (NEONEX) NEO vector is converged.

   --- OUTPUT FROM SIRCNO     Keyword = FD+NO 


 Occupations of CAS natural orbitals:

 Symmetry  1 ( irrep A1  in C2v )

   1.998562738

 Symmetry  2 ( irrep B1  in C2v )

   1.999465583

 Symmetry  3 ( irrep B2  in C2v )

   1.989081191   0.124101328

 Symmetry  4 ( irrep A2  in C2v )

   1.878243909   1.964519222   0.046026028


 --- MACRO ITERATION  8 ---
 --------------------------

 2-el. integral transformation level 3: Total CPU and WALL times (sec)     101.906     101.935

 Fock matrix screening setting for this macro iteration: 10^( -9)

 Total MCSCF energy       :          -434.281851382630236  (MACRO    8)

 - Nuclear repulsion      :           407.358090739206716
 - Inactive energy        :          -823.823882726805095
 - Active energy          :           -17.816059395031843

 Norm of total gradient   :             0.000034095392
 -    of CI gradient      :             0.000032438317
 -    of orbital gradient :             0.000010500064
      Virial theorem: -V/T =      2.002150
@    MULPOP   C       1.62; C   _1  0.22; C   _2  0.22; C   _1  0.52; C   _2  0.52; C       0.29; N       0.40; O   _1 -0.78; O   _2 -0.78; H   _1 -0.45; 
@             H   _2 -0.45; H   _1 -0.45; H   _2 -0.45; H      -0.44; 

 Residual norm when dim(red L) =   6
 NEO root     CSF        orbital          total
    1     0.00000341     0.00000489     0.00000596 converged

 (NEONEX) NEO vector is converged.

   --- OUTPUT FROM SIRCNO     Keyword = FD+NO 


 Occupations of CAS natural orbitals:

 Symmetry  1 ( irrep A1  in C2v )

   1.998564242

 Symmetry  2 ( irrep B1  in C2v )

   1.999465345

 Symmetry  3 ( irrep B2  in C2v )

   1.989081369   0.124099660

 Symmetry  4 ( irrep A2  in C2v )

   1.878244317   1.964519414   0.046025652


 --- MACRO ITERATION  9 ---
 --------------------------

 2-el. integral transformation level 3: Total CPU and WALL times (sec)     102.016     102.054

 Fock matrix screening setting for this macro iteration: 10^( -9)

 Total MCSCF energy       :          -434.281851384312745  (MACRO    9)

 - Nuclear repulsion      :           407.358090739206716
 - Inactive energy        :          -823.823404643000458
 - Active energy          :           -17.816537480519024

 Norm of total gradient   :             0.000005963626
 -    of CI gradient      :             0.000003414916
 -    of orbital gradient :             0.000004889089
      Virial theorem: -V/T =      2.002150
@    MULPOP   C       1.62; C   _1  0.22; C   _2  0.22; C   _1  0.52; C   _2  0.52; C       0.29; N       0.40; O   _1 -0.78; O   _2 -0.78; H   _1 -0.45; 
@             H   _2 -0.45; H   _1 -0.45; H   _2 -0.45; H      -0.44; 

 (SIRSTP) Energy difference;
 actual, predicted and ratio:  -0.000000001682508  -0.000000001718035    0.979322
 Close to convergence, ratio set to one.

 *** Optimization control: MCSCF converged ***
     Number of macro iterations used            9
     Number of micro iterations used           71
     Total number of CPU seconds used      3738.64

 CPU and wall time for MCSCF :    3738.641    3739.261


                     .----------------------------------------.
                     | --- SIRIUS OPTIMIZATION STATISTICS --- |
                     `----------------------------------------'


 
     Date and time (Linux)  : Sun Feb 23 23:51:03 2020
     Host name              : Lab2-333-NPs                            


  ITER ITMIC     EMCSCF           GRDNRM        RATIO      STPLNG
 ---------------------------------------------------------------------
    1    3   -434.258959518414   0.5310858463  0.000000   0.1874016228
    2    7   -434.278839633449   0.0588366468  1.000264   0.7428016549
    3    6   -434.280769941245   0.0228014055  0.827896   0.6966333717
    4   10   -434.281169123945   0.0168230714  0.814948   0.7612651934
    5   12   -434.281695406718   0.0069190869  0.743497   0.5818122752
    6    7   -434.281768895152   0.0133761052  0.325617   0.1707301965
    7   22   -434.281849508767   0.0022541556  1.055801   0.0269554273
    8    4   -434.281851382630   0.0000340954  1.014862   0.0008134556
    9    0   -434.281851384313   0.0000059636  1.000000   0.0000000000


  ITER  INDGCM  GCIMAX      GCINRM     INDGOM  GOBMAX      GOBNRM      GRDNRM
 ------------------------------------------------------------------------------
    1     83    0.003853    0.008997   1569    0.074681    0.531010    0.531086
    2     56    0.040665    0.051253   2522    0.004737    0.028895    0.058837
    3      1   -0.013493    0.014271   1872   -0.003542    0.017783    0.022801
    4     26    0.011185    0.012334   2491    0.004092    0.011441    0.016823
    5      1    0.004931    0.006017   2491   -0.001586    0.003417    0.006919
    6     26    0.012994    0.013216   2491   -0.001088    0.002062    0.013376
    7     26    0.002088    0.002200   2491   -0.000144    0.000492    0.002254
    8     26    0.000031    0.000032      1    0.000005    0.000011    0.000034
    9     56   -0.000002    0.000003   2491    0.000002    0.000005    0.000006


  ITER ITMIC NCLIN NOLIN   TIMMAC    TIMITR    TIMMIC    TIMLIN    TIMMIC/ITMIC
 ------------------------------------------------------------------------------

    1     3     0     3    252.39    100.94    121.53     91.62     40.51
    2     7     3     5    371.88    100.91    241.02    210.78     34.43
    3     6     1     6    348.44    102.09    216.34    185.86     36.06
    4    10     3     8    466.66    101.95    334.42    304.20     33.44
    5    12     4     9    525.50    102.16    393.11    362.81     32.76
    6     7     2     6    376.92    101.80    244.92    214.73     34.99
    7    22     8    15    822.77    102.45    690.06    659.73     31.37
[...]
         1    1.94466D+00  1.21D+00  1.52D+00  1.31D+02    0.00000D+00

 ** RSPCTL MICROITERATION NUMBER    8

 *** INFO, negative eigenvalues in reduced matrix. Symmetry  4,  triplet       F Dimension of reduced matrix =    18

 GP * SOLUTION vector at frequency     0.00000 a.u.
 after    9 linear transformations is      7.26868780D+03
 INERTIA (POS,ZER,NEG) of reduced matrix is   17    0    1
 Determinant of reduced matrix is -2.33 * 10 **-12.0

       No.  Residual tot.,    conf., and orb.    Bnorm      Frequency 
      ----------------------------------------------------------------
         1    1.36384D+00  1.22D+00  6.04D-01  1.31D+02    0.00000D+00

 ** RSPCTL MICROITERATION NUMBER    9

 *** INFO, negative eigenvalues in reduced matrix. Symmetry  4,  triplet       F Dimension of reduced matrix =    20

 GP * SOLUTION vector at frequency     0.00000 a.u.
 after   10 linear transformations is      7.27002272D+03
 INERTIA (POS,ZER,NEG) of reduced matrix is   19    0    1
 Determinant of reduced matrix is -2.79 * 10 **-12.0

       No.  Residual tot.,    conf., and orb.    Bnorm      Frequency 
      ----------------------------------------------------------------
         1    6.77960D-01  5.82D-02  6.75D-01  1.31D+02    0.00000D+00

 ** RSPCTL MICROITERATION NUMBER   10

 *** INFO, negative eigenvalues in reduced matrix. Symmetry  4,  triplet       F Dimension of reduced matrix =    22

 GP * SOLUTION vector at frequency     0.00000 a.u.
 after   11 linear transformations is      7.27024034D+03
 INERTIA (POS,ZER,NEG) of reduced matrix is   21    0    1
 Determinant of reduced matrix is -2.10 * 10 **-14.0

       No.  Residual tot.,    conf., and orb.    Bnorm      Frequency 
      ----------------------------------------------------------------
         1    2.48817D-01  1.03D-01  2.27D-01  1.31D+02    0.00000D+00

 ** RSPCTL MICROITERATION NUMBER   11

 *** INFO, negative eigenvalues in reduced matrix. Symmetry  4,  triplet       F Dimension of reduced matrix =    24

 GP * SOLUTION vector at frequency     0.00000 a.u.
 after   12 linear transformations is      7.27027227D+03
 INERTIA (POS,ZER,NEG) of reduced matrix is   23    0    1
 Determinant of reduced matrix is -7.11 * 10 **-16.0

       No.  Residual tot.,    conf., and orb.    Bnorm      Frequency 
      ----------------------------------------------------------------
         1    1.37891D-01  8.32D-02  1.10D-01  1.31D+02    0.00000D+00

 ** RSPCTL MICROITERATION NUMBER   12

 *** INFO, negative eigenvalues in reduced matrix. Symmetry  4,  triplet       F Dimension of reduced matrix =    26

 GP * SOLUTION vector at frequency     0.00000 a.u.
 after   13 linear transformations is      7.27027615D+03
 INERTIA (POS,ZER,NEG) of reduced matrix is   25    0    1
 Determinant of reduced matrix is -1.22 * 10 **-17.0

       No.  Residual tot.,    conf., and orb.    Bnorm      Frequency 
      ----------------------------------------------------------------
         1    8.48848D-02  7.87D-02  3.19D-02  1.31D+02    0.00000D+00

 *** THE REQUESTED    1 SOLUTION VECTORS CONVERGED

 Convergence of RSP solution vectors, threshold = 1.00D-03
 ---------------------------------------------------------------
 (dimension of paired reduced space:   26)
 RSP solution vector no.    1; norm of residual   6.48D-04

 *** RSPCTL MICROITERATIONS CONVERGED
    XDIPLEN     YDIPLEN      freq1     freq2                Norm
 ---------------------------------------------------------------
                          0.058400 -0.058400        131.03452034


 Perturbation symmetry.     KSYMOP:       1
 Perturbation spin symmetry.TRPLET:       F
 Orbital variables.         KZWOPT:    2762
 Configuration variables.   KZCONF:     115
 Total number of variables. KZVAR :    2877


 CRLRV2 -- linear response calc for sym:  1
 CRLRV2 -- operator label1: YDIPLEN 
 CRLRV2 -- operator label2: YDIPLEN 
 CRLRV2 -- freqr1 :   5.840000D-02
 CRLRV2 -- freqr2 :   5.840000D-02



 ---  SOLVING SETS OF LINEAR EQUATIONS FOR LINEAR RESPONSE PROPERTIES ---

 Operator symmetry = 1  ( A1 ); triplet =   F


 ** RSPCTL MICROITERATION NUMBER    1

       No.  Residual tot.,    conf., and orb.    Bnorm      Frequency 
      ----------------------------------------------------------------
         1    1.58073D+01  1.15D+00  1.58D+01  8.50D+01    1.16800D-01

 ** RSPCTL MICROITERATION NUMBER    2

       No.  Residual tot.,    conf., and orb.    Bnorm      Frequency 
      ----------------------------------------------------------------
         1    7.03583D+00  1.20D+00  6.93D+00  8.94D+01    1.16800D-01

 ** RSPCTL MICROITERATION NUMBER    3

       No.  Residual tot.,    conf., and orb.    Bnorm      Frequency 
      ----------------------------------------------------------------
         1    2.75773D+00  1.31D+00  2.42D+00  9.12D+01    1.16800D-01

 ** RSPCTL MICROITERATION NUMBER    4

       No.  Residual tot.,    conf., and orb.    Bnorm      Frequency 
      ----------------------------------------------------------------
         1    1.58787D+00  1.38D+00  7.89D-01  9.17D+01    1.16800D-01

 ** RSPCTL MICROITERATION NUMBER    5

       No.  Residual tot.,    conf., and orb.    Bnorm      Frequency 
      ----------------------------------------------------------------
         1    1.23241D+00  4.98D-01  1.13D+00  9.18D+01    1.16800D-01

 ** RSPCTL MICROITERATION NUMBER    6

       No.  Residual tot.,    conf., and orb.    Bnorm      Frequency 
      ----------------------------------------------------------------
         1    1.08012D+00  5.97D-01  9.00D-01  9.26D+01    1.16800D-01

 ** RSPCTL MICROITERATION NUMBER    7

       No.  Residual tot.,    conf., and orb.    Bnorm      Frequency 
      ----------------------------------------------------------------
         1    7.99455D-01  6.79D-01  4.22D-01  9.35D+01    1.16800D-01

 ** RSPCTL MICROITERATION NUMBER    8

       No.  Residual tot.,    conf., and orb.    Bnorm      Frequency 
      ----------------------------------------------------------------
         1    5.86130D-01  2.39D-01  5.35D-01  9.38D+01    1.16800D-01

 ** RSPCTL MICROITERATION NUMBER    9

       No.  Residual tot.,    conf., and orb.    Bnorm      Frequency 
      ----------------------------------------------------------------
         1    3.09982D-01  2.44D-01  1.91D-01  9.39D+01    1.16800D-01

 ** RSPCTL MICROITERATION NUMBER   10

       No.  Residual tot.,    conf., and orb.    Bnorm      Frequency 
      ----------------------------------------------------------------
         1    2.75744D-01  4.35D-02  2.72D-01  9.42D+01    1.16800D-01

 ** RSPCTL MICROITERATION NUMBER   11

       No.  Residual tot.,    conf., and orb.    Bnorm      Frequency 
      ----------------------------------------------------------------
         1    1.11809D-01  5.26D-02  9.87D-02  9.41D+01    1.16800D-01

 ** RSPCTL MICROITERATION NUMBER   12

       No.  Residual tot.,    conf., and orb.    Bnorm      Frequency 
      ----------------------------------------------------------------
         1    6.49961D-02  5.72D-02  3.09D-02  9.40D+01    1.16800D-01

 *** THE REQUESTED    1 SOLUTION VECTORS CONVERGED

 Convergence of RSP solution vectors, threshold = 1.00D-03
 ---------------------------------------------------------------
 (dimension of paired reduced space:   26)
 RSP solution vector no.    1; norm of residual   6.91D-04

 *** RSPCTL MICROITERATIONS CONVERGED
    YDIPLEN     YDIPLEN      freq1     freq2                Norm
 ---------------------------------------------------------------
                          0.058400  0.058400         94.03660414
  Time used in CRVEC2     is       2 hours  8 minutes 53 seconds


 ----- CALCULATING CONTRIBUTIONS TO SECOND HYPERPOLARIZABILITY -----


   Contribution                Term         Accumulated
 ------------------------------------------------------
 Na T[4] Nb Nc Nd    38272.66062259      38272.66062259
 Na T[3] Nx Nyz     -79697.17512010     -41424.51449751
 Na X[3] Ny Nz       51479.75643379      10055.24193629
 Nx A[3] Ny Nz       17159.91881126      27215.16074755
 Na X[2] Nyz        -14916.68994077      12298.47080678
 Nx A[2] Nyz        -35285.04784860     -22986.57704182

@ Cubic response function value in a.u. for
@ A operator, symmetry, frequency:   ZDIPLEN    1 -0.058400
@ B operator, symmetry, frequency:   ZDIPLEN    1  0.058400
@ C operator, symmetry, frequency:   ZDIPLEN    1 -0.058400
@ D operator, symmetry, frequency:   ZDIPLEN    1  0.058400

@ << A; B, C, D >>  =      -22986.57704182


 WARNING: Solution vector on RSPVEC converged to  6.89D-02
 WARNING: which is less than desired convergence  1.00D-03

 @WARNING---- Response labels XDIPLEN  ZDIPLEN  with frequencies   0.05840 -0.05840
 and symmetries    2   1 not converged on file RSPVEC


   Contribution                Term         Accumulated
 ------------------------------------------------------
 Na T[4] Nb Nc Nd    93946.52574902      93946.52574902
 Na T[3] Nx Nyz   -1138680.75536442   -1044734.22961540
 Na X[3] Ny Nz       49733.30588510    -995000.92373030
 Nx A[3] Ny Nz       12203.45049507    -982797.47323523
 Na X[2] Nyz        363056.38953395    -619741.08370129
 Nx A[2] Nyz        -67495.03261525    -687236.11631654

@ Cubic response function value in a.u. for
@ A operator, symmetry, frequency:   XDIPLEN    2 -0.058400
@ B operator, symmetry, frequency:   XDIPLEN    2  0.058400
@ C operator, symmetry, frequency:   ZDIPLEN    1 -0.058400
@ D operator, symmetry, frequency:   ZDIPLEN    1  0.058400

@ << A; B, C, D >>  =     -687236.11631654



   Contribution                Term         Accumulated
 ------------------------------------------------------
 Na T[4] Nb Nc Nd    -4230.47046355      -4230.47046355
 Na T[3] Nx Nyz      -1945.65889950      -6176.12936305
 Na X[3] Ny Nz        7953.80626353       1777.67690048
 Nx A[3] Ny Nz        2742.06272482       4519.73962530
 Na X[2] Nyz         -1595.54604707       2924.19357823
 Nx A[2] Nyz         -7143.70191165      -4219.50833342

@ Cubic response function value in a.u. for
@ A operator, symmetry, frequency:   YDIPLEN    3 -0.058400
@ B operator, symmetry, frequency:   YDIPLEN    3  0.058400
@ C operator, symmetry, frequency:   ZDIPLEN    1 -0.058400
@ D operator, symmetry, frequency:   ZDIPLEN    1  0.058400

@ << A; B, C, D >>  =       -4219.50833342


 WARNING: Solution vector on RSPVEC converged to  6.89D-02
 WARNING: which is less than desired convergence  1.00D-03

 @WARNING---- Response labels ZDIPLEN  XDIPLEN  with frequencies   0.05840 -0.05840
 and symmetries    1   2 not converged on file RSPVEC

 WARNING: Solution vector on RSPVEC converged to  6.89D-02
 WARNING: which is less than desired convergence  1.00D-03

 @WARNING---- Response labels XDIPLEN  ZDIPLEN  with frequencies  -0.05840  0.05840
 and symmetries    2   1 not converged on file RSPVEC


   Contribution                Term         Accumulated
 ------------------------------------------------------
 Na T[4] Nb Nc Nd    84653.03333469      84653.03333469
 Na T[3] Nx Nyz    -423338.96093191    -338685.92759722
 Na X[3] Ny Nz       48423.99563846    -290261.93195876
 Nx A[3] Ny Nz       11578.30989095    -278683.62206781
 Na X[2] Nyz         89836.74357404    -188846.87849377
 Nx A[2] Nyz        -34518.82204439    -223365.70053816

@ Cubic response function value in a.u. for
@ A operator, symmetry, frequency:   XDIPLEN    2 -0.058400
@ B operator, symmetry, frequency:   ZDIPLEN    1  0.058400
@ C operator, symmetry, frequency:   XDIPLEN    2 -0.058400
@ D operator, symmetry, frequency:   ZDIPLEN    1  0.058400

@ << A; B, C, D >>  =     -223365.70053816



   Contribution                Term         Accumulated
 ------------------------------------------------------
 Na T[4] Nb Nc Nd    -4128.38570932      -4128.38570932
 Na T[3] Nx Nyz      -1743.21431926      -5871.60002858
 Na X[3] Ny Nz        7710.06245998       1838.46243140
 Nx A[3] Ny Nz        2606.97653612       4445.43896753
 Na X[2] Nyz         -1662.41444664       2783.02452089
 Nx A[2] Nyz         -6931.73217641      -4148.70765552

@ Cubic response function value in a.u. for
@ A operator, symmetry, frequency:   YDIPLEN    3 -0.058400
@ B operator, symmetry, frequency:   ZDIPLEN    1  0.058400
@ C operator, symmetry, frequency:   YDIPLEN    3 -0.058400
@ D operator, symmetry, frequency:   ZDIPLEN    1  0.058400

@ << A; B, C, D >>  =       -4148.70765552


 WARNING: Solution vector on RSPVEC converged to  6.89D-02
 WARNING: which is less than desired convergence  1.00D-03

 @WARNING---- Response labels XDIPLEN  ZDIPLEN  with frequencies   0.05840 -0.05840
 and symmetries    2   1 not converged on file RSPVEC

 WARNING: Solution vector on RSPVEC converged to  6.89D-02
 WARNING: which is less than desired convergence  1.00D-03

 @WARNING---- Response labels ZDIPLEN  XDIPLEN  with frequencies  -0.05840  0.05840
 and symmetries    1   2 not converged on file RSPVEC


   Contribution                Term         Accumulated
 ------------------------------------------------------
 Na T[4] Nb Nc Nd   115593.81499765     115593.81499765
 Na T[3] Nx Nyz    -465156.11378726    -349562.29878962
 Na X[3] Ny Nz       72321.24591312    -277241.05287649
 Nx A[3] Ny Nz       28670.10395958    -248570.94891691
 Na X[2] Nyz        -45659.92463948    -294230.87355639
 Nx A[2] Nyz         61709.95639103    -232520.91716536

@ Cubic response function value in a.u. for
@ A operator, symmetry, frequency:   ZDIPLEN    1 -0.058400
@ B operator, symmetry, frequency:   XDIPLEN    2  0.058400
@ C operator, symmetry, frequency:   ZDIPLEN    1 -0.058400
@ D operator, symmetry, frequency:   XDIPLEN    2  0.058400

@ << A; B, C, D >>  =     -232520.91716536



   Contribution                Term         Accumulated
 ------------------------------------------------------
 Na T[4] Nb Nc Nd 12776006.52784794   12776006.52784794
 Na T[3] Nx Nyz  -13629669.90534672    -853663.37749878
 Na X[3] Ny Nz      946487.74535899      92824.36786021
 Nx A[3] Ny Nz      315495.91511966     408320.28297988
 Na X[2] Nyz        128446.41616815     536766.69914803
 Nx A[2] Nyz       -414979.24347731     121787.45567072

@ Cubic response function value in a.u. for
@ A operator, symmetry, frequency:   XDIPLEN    2 -0.058400
@ B operator, symmetry, frequency:   XDIPLEN    2  0.058400
@ C operator, symmetry, frequency:   XDIPLEN    2 -0.058400
@ D operator, symmetry, frequency:   XDIPLEN    2  0.058400

@ << A; B, C, D >>  =      121787.45567072



   Contribution                Term         Accumulated
 ------------------------------------------------------
 Na T[4] Nb Nc Nd    -2033.71245865      -2033.71245865
 Na T[3] Nx Nyz      -4199.40145954      -6233.11391819
 Na X[3] Ny Nz       10247.39456428       4014.28064609
 Nx A[3] Ny Nz        1483.50453855       5497.78518463
 Na X[2] Nyz         -1316.65997498       4181.12520966
 Nx A[2] Nyz         -8252.91802663      -4071.79281697

@ Cubic response function value in a.u. for
@ A operator, symmetry, frequency:   YDIPLEN    3 -0.058400
@ B operator, symmetry, frequency:   YDIPLEN    3  0.058400
@ C operator, symmetry, frequency:   XDIPLEN    2 -0.058400
@ D operator, symmetry, frequency:   XDIPLEN    2  0.058400

@ << A; B, C, D >>  =       -4071.79281697



   Contribution                Term         Accumulated
 ------------------------------------------------------
 Na T[4] Nb Nc Nd    -1935.10220471      -1935.10220471
 Na T[3] Nx Nyz      -4326.32428027      -6261.42648498
 Na X[3] Ny Nz        9791.03198497       3529.60549999
 Nx A[3] Ny Nz        1146.36568508       4675.97118507
 Na X[2] Nyz         -1000.49871792       3675.47246715
 Nx A[2] Nyz         -7080.23380829      -3404.76134113

@ Cubic response function value in a.u. for
@ A operator, symmetry, frequency:   YDIPLEN    3 -0.058400
@ B operator, symmetry, frequency:   XDIPLEN    2  0.058400
@ C operator, symmetry, frequency:   YDIPLEN    3 -0.058400
@ D operator, symmetry, frequency:   XDIPLEN    2  0.058400

@ << A; B, C, D >>  =       -3404.76134113



   Contribution                Term         Accumulated
 ------------------------------------------------------
 Na T[4] Nb Nc Nd     -178.79092203       -178.79092203
 Na T[3] Nx Nyz       1010.11932093        831.32839890
 Na X[3] Ny Nz         279.01440714       1110.34280604
 Nx A[3] Ny Nz          56.04908625       1166.39189229
 Na X[2] Nyz         -3515.95795352      -2349.56606123
 Nx A[2] Nyz         -1801.55667670      -4151.12273793

@ Cubic response function value in a.u. for
@ A operator, symmetry, frequency:   ZDIPLEN    1 -0.058400
@ B operator, symmetry, frequency:   YDIPLEN    3  0.058400
@ C operator, symmetry, frequency:   ZDIPLEN    1 -0.058400
@ D operator, symmetry, frequency:   YDIPLEN    3  0.058400

@ << A; B, C, D >>  =       -4151.12273793



   Contribution                Term         Accumulated
 ------------------------------------------------------
 Na T[4] Nb Nc Nd     4902.65647321       4902.65647321
 Na T[3] Nx Nyz       7045.75984213      11948.41631534
 Na X[3] Ny Nz       -6108.70692699       5839.70938835
 Nx A[3] Ny Nz          81.07600091       5920.78538926
 Na X[2] Nyz         -7421.23816644      -1500.45277718
 Nx A[2] Nyz         -1890.12941002      -3390.58218720

@ Cubic response function value in a.u. for
@ A operator, symmetry, frequency:   XDIPLEN    2 -0.058400
@ B operator, symmetry, frequency:   YDIPLEN    3  0.058400
@ C operator, symmetry, frequency:   XDIPLEN    2 -0.058400
@ D operator, symmetry, frequency:   YDIPLEN    3  0.058400

@ << A; B, C, D >>  =       -3390.58218720



   Contribution                Term         Accumulated
 ------------------------------------------------------
 Na T[4] Nb Nc Nd     -511.82014019       -511.82014019
 Na T[3] Nx Nyz       2225.95568525       1714.13554506
 Na X[3] Ny Nz        1465.06312260       3179.19866766
 Nx A[3] Ny Nz         488.35437420       3667.55304186
 Na X[2] Nyz         -6611.11552428      -2943.56248243
 Nx A[2] Nyz         -6641.71323416      -9585.27571658

@ Cubic response function value in a.u. for
@ A operator, symmetry, frequency:   YDIPLEN    3 -0.058400
@ B operator, symmetry, frequency:   YDIPLEN    3  0.058400
@ C operator, symmetry, frequency:   YDIPLEN    3 -0.058400
@ D operator, symmetry, frequency:   YDIPLEN    3  0.058400

@ << A; B, C, D >>  =       -9585.27571658



  Summary of gamma values for a set of frequencies
 -------------------------------------------------

@ B-freq:  0.058400
@ C-freq: -0.058400
@ D-freq:  0.058400

@ gamma(X;X,X,X)    -121787.4557
@ gamma(X;X,Y,Y)       4071.7928
@ gamma(X;Y,Y,X)       4071.7928
@ gamma(X;Y,X,Y)       3390.5822
@ gamma(X;X,Z,Z)     687236.1163
@ gamma(X;Z,Z,X)     687236.1163
@ gamma(X;Z,X,Z)     223365.7005
@ gamma(Y;Y,X,X)       4071.7928
@ gamma(Y;X,X,Y)       4071.7928
@ gamma(Y;X,Y,X)       3404.7613
@ gamma(Y;Y,Y,Y)       9585.2757
@ gamma(Y;Y,Z,Z)       4219.5083
@ gamma(Y;Z,Z,Y)       4219.5083
@ gamma(Y;Z,Y,Z)       4148.7077
@ gamma(Z;Z,X,X)     687236.1163
@ gamma(Z;X,X,Z)     687236.1163
@ gamma(Z;X,Z,X)     232520.9172
@ gamma(Z;Z,Y,Y)       4219.5083
@ gamma(Z;Y,Y,Z)       4219.5083
@ gamma(Z;Y,Z,Y)       4151.1227
@ gamma(Z;Z,Z,Z)      22986.5770

@ Averaged gamma parallel to the applied field is    199029.643517

  Total CPU  time used in RESPONSE:   6 hours 58 minutes  5 seconds
  Total wall time used in RESPONSE:   6 hours 58 minutes 11 seconds


                   .-------------------------------------------.
                   | End of Dynamic Property Section (RESPONS) |
                   `-------------------------------------------'

  Total CPU  time used in DALTON:   8 hours 15 minutes 37 seconds
  Total wall time used in DALTON:   8 hours 15 minutes 45 seconds

 
     Date and time (Linux)  : Mon Feb 24 06:49:14 2020
     Host name              : Lab2-333-NPs                            
