

     ************************************************************************
     *************** Dalton - An Electronic Structure Program ***************
     ************************************************************************

    This is output from DALTON release Dalton2018.1 (2019)
         ( Web site: http://daltonprogram.org )

   ----------------------------------------------------------------------------

    NOTE:
     
    Dalton is an experimental code for the evaluation of molecular
    properties using (MC)SCF, DFT, CI, and CC wave functions.
    The authors accept no responsibility for the performance of
    the code or for the correctness of the results.
     
    The code (in whole or part) is provided under a licence and
    is not to be reproduced for further distribution without
    the written permission of the authors or their representatives.
     
    See the home page "http://daltonprogram.org" for further information.
     
    If results obtained with this code are published,
    the appropriate citations would be both of:
     
       K. Aidas, C. Angeli, K. L. Bak, V. Bakken, R. Bast,
       L. Boman, O. Christiansen, R. Cimiraglia, S. Coriani,
       P. Dahle, E. K. Dalskov, U. Ekstroem,
       T. Enevoldsen, J. J. Eriksen, P. Ettenhuber, B. Fernandez,
       L. Ferrighi, H. Fliegl, L. Frediani, K. Hald, A. Halkier,
       C. Haettig, H. Heiberg, T. Helgaker, A. C. Hennum,
       H. Hettema, E. Hjertenaes, S. Hoest, I.-M. Hoeyvik,
       M. F. Iozzi, B. Jansik, H. J. Aa. Jensen, D. Jonsson,
       P. Joergensen, J. Kauczor, S. Kirpekar,
       T. Kjaergaard, W. Klopper, S. Knecht, R. Kobayashi, H. Koch,
       J. Kongsted, A. Krapp, K. Kristensen, A. Ligabue,
       O. B. Lutnaes, J. I. Melo, K. V. Mikkelsen, R. H. Myhre,
       C. Neiss, C. B. Nielsen, P. Norman, J. Olsen,
       J. M. H. Olsen, A. Osted, M. J. Packer, F. Pawlowski,
       T. B. Pedersen, P. F. Provasi, S. Reine, Z. Rinkevicius,
       T. A. Ruden, K. Ruud, V. Rybkin, P. Salek, C. C. M. Samson,
       A. Sanchez de Meras, T. Saue, S. P. A. Sauer,
       B. Schimmelpfennig, K. Sneskov, A. H. Steindal,
       K. O. Sylvester-Hvid, P. R. Taylor, A. M. Teale,
       E. I. Tellgren, D. P. Tew, A. J. Thorvaldsen, L. Thoegersen,
       O. Vahtras, M. A. Watson, D. J. D. Wilson, M. Ziolkowski
       and H. Agren,
       "The Dalton quantum chemistry program system",
       WIREs Comput. Mol. Sci. 2014, 4:269–284 (doi: 10.1002/wcms.1172)
     
    and
     
       Dalton, a molecular electronic structure program,
       Release Dalton2018.1 (2019), see http://daltonprogram.org
   ----------------------------------------------------------------------------

    Authors in alphabetical order (major contribution(s) in parenthesis):

  Kestutis Aidas,           Vilnius University,           Lithuania   (QM/MM)
  Celestino Angeli,         University of Ferrara,        Italy       (NEVPT2)
  Keld L. Bak,              UNI-C,                        Denmark     (AOSOPPA, non-adiabatic coupling, magnetic properties)
  Vebjoern Bakken,          University of Oslo,           Norway      (DALTON; geometry optimizer, symmetry detection)
  Radovan Bast,             UiT The Arctic U. of Norway,  Norway      (DALTON installation and execution frameworks)
  Pablo Baudin,             University of Valencia,       Spain       (Cholesky excitation energies)
  Linus Boman,              NTNU,                         Norway      (Cholesky decomposition and subsystems)
  Ove Christiansen,         Aarhus University,            Denmark     (CC module)
  Renzo Cimiraglia,         University of Ferrara,        Italy       (NEVPT2)
  Sonia Coriani,            Technical Univ. of Denmark,   Denmark     (CC module, MCD in RESPONS)
  Janusz Cukras,            University of Trieste,        Italy       (MChD in RESPONS)
  Paal Dahle,               University of Oslo,           Norway      (Parallelization)
  Erik K. Dalskov,          UNI-C,                        Denmark     (SOPPA)
  Thomas Enevoldsen,        Univ. of Southern Denmark,    Denmark     (SOPPA)
  Janus J. Eriksen,         Aarhus University,            Denmark     (Polarizable embedding model, TDA)
  Rasmus Faber,             University of Copenhagen,     Denmark     (Vib.avg. NMR with SOPPA, parallel AO-SOPPA)
  Tobias Fahleson,          KTH Stockholm,                Sweden      (Damped cubic response)
  Berta Fernandez,          U. of Santiago de Compostela, Spain       (doublet spin, ESR in RESPONS)
  Lara Ferrighi,            Aarhus University,            Denmark     (PCM Cubic response)
  Heike Fliegl,             University of Oslo,           Norway      (CCSD(R12))
  Luca Frediani,            UiT The Arctic U. of Norway,  Norway      (PCM)
  Bin Gao,                  UiT The Arctic U. of Norway,  Norway      (Gen1Int library)
  Christof Haettig,         Ruhr-University Bochum,       Germany     (CC module)
  Kasper Hald,              Aarhus University,            Denmark     (CC module)
  Asger Halkier,            Aarhus University,            Denmark     (CC module)
  Frederik Beyer Hansen,    University of Copenhagen,     Denmark     (Parallel AO-SOPPA)
  Erik D. Hedegaard,        Univ. of Southern Denmark,    Denmark     (Polarizable embedding model, QM/MM)
  Hanne Heiberg,            University of Oslo,           Norway      (geometry analysis, selected one-electron integrals)
  Trygve Helgaker,          University of Oslo,           Norway      (DALTON; ABACUS, ERI, DFT modules, London, and much more)
  Alf Christian Hennum,     University of Oslo,           Norway      (Parity violation)
  Hinne Hettema,            University of Auckland,       New Zealand (quadratic response in RESPONS; SIRIUS supersymmetry)
  Eirik Hjertenaes,         NTNU,                         Norway      (Cholesky decomposition)
  Pi A. B. Haase,           University of Copenhagen,     Denmark     (Triplet AO-SOPPA)
  Maria Francesca Iozzi,    University of Oslo,           Norway      (RPA)
  Christoph Jacob           TU Braunschweig               Germany     (Frozen density embedding model)
  Brano Jansik              Technical Univ. of Ostrava    Czech Rep.  (DFT cubic response)
  Hans Joergen Aa. Jensen,  Univ. of Southern Denmark,    Denmark     (DALTON; SIRIUS, RESPONS, ABACUS modules, London, and much more)
  Dan Jonsson,              UiT The Arctic U. of Norway,  Norway      (cubic response in RESPONS module)
  Poul Joergensen,          Aarhus University,            Denmark     (RESPONS, ABACUS, and CC modules)
  Maciej Kaminski,          University of Warsaw,         Poland      (CPPh in RESPONS)
  Joanna Kauczor,           Linkoeping University,        Sweden      (Complex polarization propagator (CPP) module)
  Sheela Kirpekar,          Univ. of Southern Denmark,    Denmark     (Mass-velocity & Darwin integrals)
  Wim Klopper,              KIT Karlsruhe,                Germany     (R12 code in CC, SIRIUS, and ABACUS modules)
  Stefan Knecht,            ETH Zurich,                   Switzerland (Parallel CI and MCSCF)
  Rika Kobayashi,           Australian National Univ.,    Australia   (DIIS in CC, London in MCSCF)
  Henrik Koch,              NTNU,                         Norway      (CC module, Cholesky decomposition)
  Jacob Kongsted,           Univ. of Southern Denmark,    Denmark     (Polarizable embedding model, QM/MM)
  Andrea Ligabue,           University of Modena,         Italy       (CTOCD, AOSOPPA)
  Nanna H. List             Univ. of Southern Denmark,    Denmark     (Polarizable embedding model)
  Ola B. Lutnaes,           University of Oslo,           Norway      (DFT Hessian)
  Juan I. Melo,             University of Buenos Aires,   Argentina   (LRESC, Relativistic Effects on NMR Shieldings)
  Kurt V. Mikkelsen,        University of Copenhagen,     Denmark     (MC-SCRF and QM/MM)
  Rolf H. Myhre,            NTNU,                         Norway      (Subsystems and CC3)
  Christian Neiss,          Univ. Erlangen-Nuernberg,     Germany     (CCSD(R12))
  Christian B. Nielsen,     University of Copenhagen,     Denmark     (QM/MM)
  Patrick Norman,           KTH Stockholm,                Sweden      (Cubic response and complex frequency response in RESPONS)
  Jeppe Olsen,              Aarhus University,            Denmark     (SIRIUS CI/density modules)
  Jogvan Magnus H. Olsen,   Univ. of Southern Denmark,    Denmark     (Polarizable embedding model, QM/MM)
  Anders Osted,             Copenhagen University,        Denmark     (QM/MM)
  Martin J. Packer,         University of Sheffield,      UK          (SOPPA)
  Filip Pawlowski,          Kazimierz Wielki University,  Poland      (CC3)
  Morten N. Pedersen,       Univ. of Southern Denmark,    Denmark     (Polarizable embedding model)
  Thomas B. Pedersen,       University of Oslo,           Norway      (Cholesky decomposition)
  Patricio F. Provasi,      University of Northeastern,   Argentina   (Analysis of coupling constants in localized orbitals)
  Zilvinas Rinkevicius,     KTH Stockholm,                Sweden      (open-shell DFT, ESR)
  Elias Rudberg,            KTH Stockholm,                Sweden      (DFT grid and basis info)
  Torgeir A. Ruden,         University of Oslo,           Norway      (Numerical derivatives in ABACUS)
  Kenneth Ruud,             UiT The Arctic U. of Norway,  Norway      (DALTON; ABACUS magnetic properties and much more)
  Pawel Salek,              KTH Stockholm,                Sweden      (DALTON; DFT code)
  Claire C. M. Samson       University of Karlsruhe       Germany     (Boys localization, r12 integrals in ERI)
  Alfredo Sanchez de Meras, University of Valencia,       Spain       (CC module, Cholesky decomposition)
  Trond Saue,               Paul Sabatier University,     France      (direct Fock matrix construction)
  Stephan P. A. Sauer,      University of Copenhagen,     Denmark     (SOPPA(CCSD), SOPPA prop., AOSOPPA, vibrational g-factors)
  Andre S. P. Gomes,        CNRS/Universite de Lille,     France      (Frozen density embedding model)
  Bernd Schimmelpfennig,    Forschungszentrum Karlsruhe,  Germany     (AMFI module)
  Kristian Sneskov,         Aarhus University,            Denmark     (Polarizable embedding model, QM/MM)
  Arnfinn H. Steindal,      UiT The Arctic U. of Norway,  Norway      (parallel QM/MM, Polarizable embedding model)
  Casper Steinmann,         Univ. of Southern Denmark,    Denmark     (QFIT, Polarizable embedding model)
  K. O. Sylvester-Hvid,     University of Copenhagen,     Denmark     (MC-SCRF)
  Peter R. Taylor,          VLSCI/Univ. of Melbourne,     Australia   (Symmetry handling ABACUS, integral transformation)
  Andrew M. Teale,          University of Nottingham,     England     (DFT-AC, DFT-D)
  David P. Tew,             University of Bristol,        England     (CCSD(R12))
  Olav Vahtras,             KTH Stockholm,                Sweden      (triplet response, spin-orbit, ESR, TDDFT, open-shell DFT)
  Lucas Visscher,           Vrije Universiteit Amsterdam, Netherlands (Frozen density embedding model)
  David J. Wilson,          La Trobe University,          Australia   (DFT Hessian and DFT magnetizabilities)
  Hans Agren,               KTH Stockholm,                Sweden      (SIRIUS module, RESPONS, MC-SCRF solvation model)
 --------------------------------------------------------------------------------

     Date and time (Linux)  : Sun Mar  1 17:43:41 2020
     Host name              : Lab2-333-NPs                            

 * Work memory size             :  1024000000 =  7.629 gigabytes.

 * Directories for basis set searches:
   1) /home/lab333/dalton/build_2018_atlas
   2) /home/lab333/dalton/build_2018_atlas/basis


Compilation information
-----------------------

 Who compiled             | lab333
 Host                     | Lab2-333-NPs
 System                   | Linux-4.4.0-43-Microsoft
 CMake generator          | Unix Makefiles
 Processor                | x86_64
 64-bit integers          | OFF
 MPI                      | OFF
 Fortran compiler         | /usr/bin/gfortran
 Fortran compiler version | GNU Fortran (Ubuntu 7.3.0-27ubuntu1~18.04) 7.3.0
 C compiler               | /usr/bin/gcc
 C compiler version       | gcc (Ubuntu 7.3.0-27ubuntu1~18.04) 7.3.0
 C++ compiler             | /usr/bin/g++
 C++ compiler version     | g++ (Ubuntu 7.3.0-27ubuntu1~18.04) 7.3.0
 BLAS                     | /usr/lib/x86_64-linux-gnu/libf77blas.so;/usr/lib/x
                          | 86_64-linux-gnu/libcblas.so;/usr/lib/x86_64-linux-
                          | gnu/libatlas.so
 LAPACK                   | /usr/lib/x86_64-linux-gnu/libatlas.so;/usr/lib/x86
                          | _64-linux-gnu/atlas/liblapack.so
 Static linking           | OFF
 Last Git revision        | da625bf48c74028e805616daee31bc5d76b3a20d
 Git branch               | (HEAD detached at Dalton2018.1)
 Configuration time       | 2019-01-18 10:20:51.437510


   Content of the .dal input file
 ----------------------------------

**DALTON INPUT
.RUN RESPONSE
.DIRECT
**WAVE FUNCTIONS
.HF
.MP2
.MCSCF
*CONFIGURATION INPUT
.SPIN MULTIPLICITY
3
.SYMMETRY
1
.INACTIVE ORBITALS
15 10 2 0
.CAS SPACE
1 1 2 3
.ELECTRONS
10
*ORBITAL INPUT
.MOSTART
.HUCKEL
*OPTIMIZATION
.DETERMINANTS
.STATE
2
*CI VECTOR
.PLUS COMBINATIONS
**RESPONSE
*CUBIC
.DIPLEN
.BFREQ
1
0.0584
.CFREQ
1
-0.0584
.DFREQ
1
0.0584
**END OF DALTON INPUT


   Content of the .mol file
 ----------------------------

BASIS
aug-cc-pCVDZ
 nitrobenzene
 Generated by the Dalton Input File Plugin for Avogadro
Atomtypes=4 Angstrom Generators=2 X Y
Charge=6.0 Atoms=4
C        0.0000000000            0.0000000000           -0.0265759623
C       -1.2190534920            0.0000000000           -0.6979856948
C       -1.2105095870            0.0000000000           -2.0897394457
C        0.0000000000            0.0000000000           -2.7841484631
Charge=7.0 Atoms=1
N        0.0000000000            0.0000000000            1.4215958362666665
Charge=8.0 Atoms=1
O       1.0847503743            0.0            1.9902446464666668
Charge=1.0 Atoms=3
H       -2.1410602955            0.0000000000           -0.1327964319
H       -2.1492827751            0.0000000000           -2.6311811056
H        0.0000000000            0.0000000000           -3.8683953478


       *******************************************************************
       *********** Output from DALTON general input processing ***********
       *******************************************************************

 --------------------------------------------------------------------------------
   Overall default print level:    0
   Print level for DALTON.STAT:    1

    AO-direct calculation (in sections where implemented)
    HERMIT 1- and 2-electron integral sections will be executed
    "Old" integral transformation used (limited to max 255 basis functions)
    Wave function sections will be executed (SIRIUS module)
    Dynamic molecular response properties section will be executed (RESPONSE module)
 --------------------------------------------------------------------------------


   ****************************************************************************
   *************** Output of molecule and basis set information ***************
   ****************************************************************************


    The two title cards from your ".mol" input:
    ------------------------------------------------------------------------
 1:  nitrobenzene                                                           
 2:  Generated by the Dalton Input File Plugin for Avogadro                 
    ------------------------------------------------------------------------

  Coordinates are entered in Angstrom and converted to atomic units.
          - Conversion factor : 1 bohr = 0.52917721 A

  Atomic type no.    1
  --------------------
  Nuclear charge:   6.00000
  Number of symmetry independent centers:    4
  Number of basis sets to read;    2
  Basis set file used for this atomic type with Z =   6 :
     "/home/lab333/dalton/build_2018_atlas/basis/aug-cc-pCVDZ"

  Atomic type no.    2
  --------------------
  Nuclear charge:   7.00000
  Number of symmetry independent centers:    1
  Number of basis sets to read;    2
  Basis set file used for this atomic type with Z =   7 :
     "/home/lab333/dalton/build_2018_atlas/basis/aug-cc-pCVDZ"

  Atomic type no.    3
  --------------------
  Nuclear charge:   8.00000
  Number of symmetry independent centers:    1
  Number of basis sets to read;    2
  Basis set file used for this atomic type with Z =   8 :
     "/home/lab333/dalton/build_2018_atlas/basis/aug-cc-pCVDZ"

  Atomic type no.    4
  --------------------
  Nuclear charge:   1.00000
  Number of symmetry independent centers:    3
  Number of basis sets to read;    2
  Basis set file used for this atomic type with Z =   1 :
     "/home/lab333/dalton/build_2018_atlas/basis/aug-cc-pCVDZ"


                         SYMGRP: Point group information
                         -------------------------------

@    Point group: C2v

@  * The irrep name for each symmetry:    1: A1     2: B1     3: B2     4: A2 

   * The point group was generated by:

      Reflection in the yz-plane
      Reflection in the xz-plane

   * Group multiplication table

        |  E   C2z  Oxz  Oyz
   -----+--------------------
     E  |  E   C2z  Oxz  Oyz
    C2z | C2z   E   Oyz  Oxz
    Oxz | Oxz  Oyz   E   C2z
    Oyz | Oyz  Oxz  C2z   E 

   * Character table

        |  E   C2z  Oxz  Oyz
   -----+--------------------
    A1  |   1    1    1    1
    B1  |   1   -1    1   -1
    B2  |   1   -1   -1    1
    A2  |   1    1   -1   -1

   * Direct product table

        | A1   B1   B2   A2 
   -----+--------------------
    A1  | A1   B1   B2   A2 
    B1  | B1   A1   A2   B2 
    B2  | B2   A2   A1   B1 
    A2  | A2   B2   B1   A1 


                                 Isotopic Masses
                                 ---------------

                           C          12.000000
                           C   _1     12.000000
                           C   _2     12.000000
                           C   _1     12.000000
                           C   _2     12.000000
                           C          12.000000
                           N          14.003074
                           O   _1     15.994915
                           O   _2     15.994915
                           H   _1      1.007825
                           H   _2      1.007825
                           H   _1      1.007825
                           H   _2      1.007825
                           H           1.007825

                       Total mass:   123.032029 amu
                       Natural abundance:  92.716 %

 Center-of-mass coordinates (a.u.):    0.000000    0.000000   -0.407486


  Atoms and basis sets
  --------------------

  Number of atom types :    4
  Total number of atoms:   14

  Basis set used is "aug-cc-pCVDZ" from the basis set library.

  label    atoms   charge   prim   cont     basis
  ----------------------------------------------------------------------
  C           6    6.0000    39    27      [11s6p2d|5s4p2d]                                   
  N           1    7.0000    39    27      [11s6p2d|5s4p2d]                                   
  O           2    8.0000    39    27      [11s6p2d|5s4p2d]                                   
  H           5    1.0000    11     9      [5s2p|3s2p]                                        
  ----------------------------------------------------------------------
  total:     14   64.0000   406   288
  ----------------------------------------------------------------------
  Spherical harmonic basis used.

  Threshold for neglecting AO integrals:  1.00D-12


  Symmetry Coordinates
  --------------------

  Number of coordinates in each symmetry:    14   14    9    5


   Interatomic separations (in Angstrom):
   --------------------------------------

            C           C   _1      C   _2      C   _1      C   _2      C     
            ------      ------      ------      ------      ------      ------
 C     :    0.000000
 C   _1:    1.391719    0.000000
 C   _2:    1.391719    2.438107    0.000000
 C   _1:    2.392065    1.391780    2.799956    0.000000
 C   _2:    2.392065    2.799956    1.391780    2.421019    0.000000
 C     :    2.757573    2.416230    2.416230    1.395542    1.395542    0.000000
 N     :    1.448172    2.445142    2.445142    3.714136    3.714136    4.205744
 O   _1:    2.290032    3.540352    2.691583    4.681291    4.081922    4.896071
 O   _2:    2.290032    2.691583    3.540352    4.081922    4.681291    4.896071
 H   _1:    2.143694    1.081451    3.407316    2.166922    3.881063    3.407904
 H   _2:    2.143694    3.407316    1.081451    3.881063    2.166922    3.407904
 H   _1:    3.376890    2.145360    3.883675    1.083722    3.403140    2.154719
 H   _2:    3.376890    3.883675    2.145360    3.403140    1.083722    2.154719
 H     :    3.841819    3.396703    3.396703    2.151500    2.151500    1.084247

            N           O   _1      O   _2      H   _1      H   _2      H   _1
            ------      ------      ------      ------      ------      ------
 N     :    0.000000
 O   _1:    1.224763    0.000000
 O   _2:    1.224763    2.169501    0.000000
 H   _1:    2.645803    3.861756    2.371306    0.000000
 H   _2:    2.645803    2.371306    3.861756    4.282121    0.000000
 H   _1:    4.587419    5.640616    4.742447    2.498398    4.964773    0.000000
 H   _2:    4.587419    4.742447    5.640616    4.964773    2.498398    4.298566
 H     :    5.289991    5.958217    5.958217    4.305675    4.305675    2.479943

            H   _2      H     
            ------      ------
 H   _2:    0.000000
 H     :    2.479943    0.000000


  Max    interatomic separation is    5.9582 Angstrom (   11.2594 Bohr)
  between atoms   14 and    8, "H     " and "O   _1".

  Min HX interatomic separation is    1.0815 Angstrom (    2.0436 Bohr)

  Min YX interatomic separation is    1.2248 Angstrom (    2.3145 Bohr)


  Bond distances (Angstrom):
  --------------------------

                  atom 1     atom 2       distance
                  ------     ------       --------
  bond distance:  C   _1     C            1.391719
  bond distance:  C   _2     C            1.391719
  bond distance:  C   _1     C   _1       1.391780
  bond distance:  C   _2     C   _2       1.391780
  bond distance:  C          C   _1       1.395542
  bond distance:  C          C   _2       1.395542
  bond distance:  N          C            1.448172
  bond distance:  O   _1     N            1.224763
  bond distance:  O   _2     N            1.224763
  bond distance:  H   _1     C   _1       1.081451
  bond distance:  H   _2     C   _2       1.081451
  bond distance:  H   _1     C   _1       1.083722
  bond distance:  H   _2     C   _2       1.083722
  bond distance:  H          C            1.084247


  Bond angles (degrees):
  ----------------------

                  atom 1     atom 2     atom 3         angle
                  ------     ------     ------         -----
  bond angle:     C   _1     C          C   _2       122.311
  bond angle:     C   _1     C          N            118.844
  bond angle:     C   _2     C          N            118.844
  bond angle:     C          C   _1     C   _1       118.493
  bond angle:     C          C   _1     H   _1       119.647
  bond angle:     C   _1     C   _1     H   _1       121.860
  bond angle:     C          C   _2     C   _2       118.493
  bond angle:     C          C   _2     H   _2       119.647
  bond angle:     C   _2     C   _2     H   _2       121.860
  bond angle:     C   _1     C   _1     C            120.192
  bond angle:     C   _1     C   _1     H   _1       119.623
  bond angle:     C          C   _1     H   _1       120.185
  bond angle:     C   _2     C   _2     C            120.192
  bond angle:     C   _2     C   _2     H   _2       119.623
  bond angle:     C          C   _2     H   _2       120.185
  bond angle:     C   _1     C          C   _2       120.319
  bond angle:     C   _1     C          H            119.841
  bond angle:     C   _2     C          H            119.841
  bond angle:     C          N          O   _1       117.664
  bond angle:     C          N          O   _2       117.664
  bond angle:     O   _1     N          O   _2       124.671




 Principal moments of inertia (u*A**2) and principal axes
 --------------------------------------------------------

   IA     127.027245          0.000000    0.000000    1.000000
   IB     387.891368          1.000000    0.000000    0.000000
   IC     514.918613          0.000000    1.000000    0.000000


 Rotational constants
 --------------------

@    The molecule is planar.

               A                   B                   C

           3978.5088           1302.8880            981.4736 MHz
            0.132709            0.043460            0.032738 cm-1


@  Nuclear repulsion energy :  413.803377248499 Hartree


  Symmetry Orbitals
  -----------------

  Number of orbitals in each symmetry:         115   91   48   34


  Symmetry  A1 ( 1)

    1     C        1s         1
    2     C        1s         2
    3     C        1s         3
    4     C        1s         4
    5     C        1s         5
    6     C        2pz        8
    7     C        2pz       11
    8     C        2pz       14
    9     C        2pz       17
   10     C        3d0       20
   11     C        3d2+      22
   12     C        3d0       25
   13     C        3d2+      27
   14     C        1s        28 +   29
   15     C        1s        30 +   31
   16     C        1s        32 +   33
   17     C        1s        34 +   35
   18     C        1s        36 +   37
   19     C        2px       38 -   39
   20     C        2pz       42 +   43
   21     C        2px       44 -   45
   22     C        2pz       48 +   49
   23     C        2px       50 -   51
   24     C        2pz       54 +   55
   25     C        2px       56 -   57
   26     C        2pz       60 +   61
   27     C        3d0       66 +   67
   28     C        3d1+      68 -   69
   29     C        3d2+      70 +   71
   30     C        3d0       76 +   77
   31     C        3d1+      78 -   79
   32     C        3d2+      80 +   81
   33     C        1s        82 +   83
   34     C        1s        84 +   85
   35     C        1s        86 +   87
   36     C        1s        88 +   89
   37     C        1s        90 +   91
   38     C        2px       92 -   93
   39     C        2pz       96 +   97
   40     C        2px       98 -   99
   41     C        2pz      102 +  103
   42     C        2px      104 -  105
   43     C        2pz      108 +  109
   44     C        2px      110 -  111
   45     C        2pz      114 +  115
   46     C        3d0      120 +  121
   47     C        3d1+     122 -  123
   48     C        3d2+     124 +  125
   49     C        3d0      130 +  131
   50     C        3d1+     132 -  133
   51     C        3d2+     134 +  135
   52     C        1s       136
   53     C        1s       137
   54     C        1s       138
   55     C        1s       139
   56     C        1s       140
   57     C        2pz      143
   58     C        2pz      146
   59     C        2pz      149
   60     C        2pz      152
   61     C        3d0      155
   62     C        3d2+     157
   63     C        3d0      160
   64     C        3d2+     162
   65     N        1s       163
   66     N        1s       164
   67     N        1s       165
   68     N        1s       166
   69     N        1s       167
   70     N        2pz      170
   71     N        2pz      173
   72     N        2pz      176
   73     N        2pz      179
   74     N        3d0      182
   75     N        3d2+     184
   76     N        3d0      187
   77     N        3d2+     189
   78     O        1s       190 +  191
   79     O        1s       192 +  193
   80     O        1s       194 +  195
   81     O        1s       196 +  197
   82     O        1s       198 +  199
   83     O        2px      200 -  201
   84     O        2pz      204 +  205
   85     O        2px      206 -  207
   86     O        2pz      210 +  211
   87     O        2px      212 -  213
   88     O        2pz      216 +  217
   89     O        2px      218 -  219
   90     O        2pz      222 +  223
   91     O        3d0      228 +  229
   92     O        3d1+     230 -  231
   93     O        3d2+     232 +  233
   94     O        3d0      238 +  239
   95     O        3d1+     240 -  241
   96     O        3d2+     242 +  243
   97     H        1s       244 +  245
   98     H        1s       246 +  247
   99     H        1s       248 +  249
  100     H        2px      250 -  251
  101     H        2pz      254 +  255
  102     H        2px      256 -  257
  103     H        2pz      260 +  261
  104     H        1s       262 +  263
  105     H        1s       264 +  265
  106     H        1s       266 +  267
  107     H        2px      268 -  269
  108     H        2pz      272 +  273
  109     H        2px      274 -  275
  110     H        2pz      278 +  279
  111     H        1s       280
  112     H        1s       281
  113     H        1s       282
  114     H        2pz      285
  115     H        2pz      288


  Symmetry  B1 ( 2)

  116     C        2px        6
  117     C        2px        9
  118     C        2px       12
  119     C        2px       15
  120     C        3d1+      21
  121     C        3d1+      26
  122     C        1s        28 -   29
  123     C        1s        30 -   31
  124     C        1s        32 -   33
  125     C        1s        34 -   35
  126     C        1s        36 -   37
  127     C        2px       38 +   39
  128     C        2pz       42 -   43
  129     C        2px       44 +   45
  130     C        2pz       48 -   49
  131     C        2px       50 +   51
  132     C        2pz       54 -   55
  133     C        2px       56 +   57
  134     C        2pz       60 -   61
  135     C        3d0       66 -   67
  136     C        3d1+      68 +   69
  137     C        3d2+      70 -   71
  138     C        3d0       76 -   77
  139     C        3d1+      78 +   79
  140     C        3d2+      80 -   81
  141     C        1s        82 -   83
  142     C        1s        84 -   85
  143     C        1s        86 -   87
  144     C        1s        88 -   89
  145     C        1s        90 -   91
  146     C        2px       92 +   93
  147     C        2pz       96 -   97
  148     C        2px       98 +   99
  149     C        2pz      102 -  103
  150     C        2px      104 +  105
  151     C        2pz      108 -  109
  152     C        2px      110 +  111
  153     C        2pz      114 -  115
  154     C        3d0      120 -  121
  155     C        3d1+     122 +  123
  156     C        3d2+     124 -  125
  157     C        3d0      130 -  131
  158     C        3d1+     132 +  133
  159     C        3d2+     134 -  135
  160     C        2px      141
  161     C        2px      144
  162     C        2px      147
  163     C        2px      150
  164     C        3d1+     156
  165     C        3d1+     161
  166     N        2px      168
  167     N        2px      171
  168     N        2px      174
  169     N        2px      177
  170     N        3d1+     183
  171     N        3d1+     188
  172     O        1s       190 -  191
  173     O        1s       192 -  193
  174     O        1s       194 -  195
  175     O        1s       196 -  197
  176     O        1s       198 -  199
  177     O        2px      200 +  201
  178     O        2pz      204 -  205
  179     O        2px      206 +  207
  180     O        2pz      210 -  211
  181     O        2px      212 +  213
  182     O        2pz      216 -  217
  183     O        2px      218 +  219
  184     O        2pz      222 -  223
  185     O        3d0      228 -  229
  186     O        3d1+     230 +  231
  187     O        3d2+     232 -  233
  188     O        3d0      238 -  239
  189     O        3d1+     240 +  241
  190     O        3d2+     242 -  243
  191     H        1s       244 -  245
  192     H        1s       246 -  247
  193     H        1s       248 -  249
  194     H        2px      250 +  251
  195     H        2pz      254 -  255
  196     H        2px      256 +  257
  197     H        2pz      260 -  261
  198     H        1s       262 -  263
  199     H        1s       264 -  265
  200     H        1s       266 -  267
  201     H        2px      268 +  269
  202     H        2pz      272 -  273
  203     H        2px      274 +  275
  204     H        2pz      278 -  279
  205     H        2px      283
  206     H        2px      286


  Symmetry  B2 ( 3)

  207     C        2py        7
  208     C        2py       10
  209     C        2py       13
  210     C        2py       16
  211     C        3d1-      19
  212     C        3d1-      24
  213     C        2py       40 +   41
  214     C        2py       46 +   47
  215     C        2py       52 +   53
  216     C        2py       58 +   59
  217     C        3d2-      62 -   63
  218     C        3d1-      64 +   65
  219     C        3d2-      72 -   73
  220     C        3d1-      74 +   75
  221     C        2py       94 +   95
  222     C        2py      100 +  101
  223     C        2py      106 +  107
  224     C        2py      112 +  113
  225     C        3d2-     116 -  117
  226     C        3d1-     118 +  119
  227     C        3d2-     126 -  127
  228     C        3d1-     128 +  129
  229     C        2py      142
  230     C        2py      145
  231     C        2py      148
  232     C        2py      151
  233     C        3d1-     154
  234     C        3d1-     159
  235     N        2py      169
  236     N        2py      172
  237     N        2py      175
  238     N        2py      178
  239     N        3d1-     181
  240     N        3d1-     186
  241     O        2py      202 +  203
  242     O        2py      208 +  209
  243     O        2py      214 +  215
  244     O        2py      220 +  221
  245     O        3d2-     224 -  225
  246     O        3d1-     226 +  227
  247     O        3d2-     234 -  235
  248     O        3d1-     236 +  237
  249     H        2py      252 +  253
  250     H        2py      258 +  259
  251     H        2py      270 +  271
  252     H        2py      276 +  277
  253     H        2py      284
  254     H        2py      287


  Symmetry  A2 ( 4)

  255     C        3d2-      18
  256     C        3d2-      23
  257     C        2py       40 -   41
  258     C        2py       46 -   47
  259     C        2py       52 -   53
  260     C        2py       58 -   59
  261     C        3d2-      62 +   63
  262     C        3d1-      64 -   65
  263     C        3d2-      72 +   73
  264     C        3d1-      74 -   75
  265     C        2py       94 -   95
  266     C        2py      100 -  101
  267     C        2py      106 -  107
  268     C        2py      112 -  113
  269     C        3d2-     116 +  117
  270     C        3d1-     118 -  119
  271     C        3d2-     126 +  127
  272     C        3d1-     128 -  129
  273     C        3d2-     153
  274     C        3d2-     158
  275     N        3d2-     180
  276     N        3d2-     185
  277     O        2py      202 -  203
  278     O        2py      208 -  209
  279     O        2py      214 -  215
  280     O        2py      220 -  221
  281     O        3d2-     224 +  225
  282     O        3d1-     226 -  227
  283     O        3d2-     234 +  235
  284     O        3d1-     236 -  237
  285     H        2py      252 -  253
  286     H        2py      258 -  259
  287     H        2py      270 -  271
  288     H        2py      276 -  277

  Symmetries of electric field:  B1 (2)  B2 (3)  A1 (1)

  Symmetries of magnetic field:  B2 (3)  B1 (2)  A2 (4)


                     .---------------------------------------.
                     | Starting in Integral Section (HERMIT) |
                     `---------------------------------------'



 ***************************************************************************************
 ****************** Output from **INTEGRALS input processing (HERMIT) ******************
 ***************************************************************************************


 - Using defaults, no **INTEGRALS input found

 Default print level:        1

 Calculation of one-electron Hamiltonian integrals.

 Center of mass  (bohr):      0.000000000000      0.000000000000     -0.407485904113
 Operator center (bohr):      0.000000000000      0.000000000000      0.000000000000
 Gauge origin    (bohr):      0.000000000000      0.000000000000      0.000000000000
 Dipole origin   (bohr):      0.000000000000      0.000000000000      0.000000000000


     ************************************************************************
     ************************** Output from HERINT **************************
     ************************************************************************



                      Nuclear contribution to dipole moments
                      --------------------------------------

                 au               Debye          C m (/(10**-30)

      z    -33.86070507       -86.06532208      -287.08301289


  Time used in ONEDRV     is       0.11 seconds
  Time used in GABGEN     is       0.11 seconds
  Total CPU  time used in HERMIT:   0.44 seconds
  Total wall time used in HERMIT:   0.44 seconds


                        .----------------------------------.
                        | End of Integral Section (HERMIT) |
                        `----------------------------------'



                   .--------------------------------------------.
                   | Starting in Wave Function Section (SIRIUS) |
                   `--------------------------------------------'


 *** Output from Huckel module :

     Using EWMO model:          F
     Using EHT  model:          T
     Number of Huckel orbitals each symmetry:   24   17    6    3

 Huckel EHT eigenvalues for symmetry :  1
          -20.695947     -15.707500     -11.415361     -11.395076     -11.377075
          -11.362728      -1.757346      -1.554846      -1.196096      -0.941931
           -0.816042      -0.782426      -0.641413      -0.588760      -0.492988
           -0.428362      -0.327409      -0.244038      -0.223927      -0.213581
           -0.205628      -0.178287      -0.166210      -0.160259

 Huckel EHT eigenvalues for symmetry :  2
          -20.700675     -11.396488     -11.377866      -1.403534      -1.201909
           -0.879655      -0.646195      -0.570338      -0.525962      -0.478338
           -0.414769      -0.271262      -0.213041      -0.202773      -0.176202
           -0.165328      -0.163127

 Huckel EHT eigenvalues for symmetry :  3
           -0.803118      -0.670449      -0.466269      -0.383393      -0.281098
           -0.236327

 Huckel EHT eigenvalues for symmetry :  4
           -0.592946      -0.460082      -0.288817

 **********************************************************************
 *SIRIUS* a direct, restricted step, second order MCSCF program       *
 **********************************************************************

 
     Date and time (Linux)  : Sun Mar  1 17:43:42 2020
     Host name              : Lab2-333-NPs                            

 Title lines from ".mol" input file:
      nitrobenzene                                                           
      Generated by the Dalton Input File Plugin for Avogadro                 

 Print level on unit LUPRI =   2 is   0
 Print level on unit LUW4  =   2 is   5

@    MC-SCF optimization.

@    Multi-configurational response calculation.
@              Type: complete active space calculation (CAS).

@    This is a combination run starting with
@              a restricted, closed shell Hartree-Fock calculation
@              an MP2 calculation

 Fock matrices are calculated directly without use of integrals on disk.

 Initial molecular orbitals are obtained according to
 ".MOSTART EHT   " input option

     Wave function specification
     ============================
@    Wave function type        --- MC-SCF ---
@    Number of closed shell electrons          54
@    Number of electrons in active shells      10
@    Total charge of the molecule               0

@    Spin multiplicity and 2 M_S                3         2
@    Total number of symmetries                 4 (point group: C2v)
@    Reference state symmetry                   1 (irrep name : A1 )

     Orbital specifications
     ======================
@    Abelian symmetry species          All |    1    2    3    4
@                                          |  A1   B1   B2   A2 
                                       --- |  ---  ---  ---  ---
@    Inactive orbitals                  27 |   15   10    2    0
@    Active orbitals                     7 |    1    1    2    3
@    Secondary orbitals                254 |   99   80   44   31
@    Total number of orbitals          288 |  115   91   48   34
@    Number of basis functions         288 |  115   91   48   34

      ** Automatic occupation of RHF orbitals **

      -- Initial occupation of symmetries is determined from extended Huckel guess.           
      -- Initial occupation of symmetries is :
@    Occupied SCF orbitals              32 |   16   11    3    2

     Optimization information
     ========================
@    Number of determinants                  56
@    Number of orbital rotations           2762
     ------------------------------------------
@    Total number of variables             2818

     Maximum number of macro iterations      40
     Maximum number of micro iterations     960
     Threshold for MCSCF gradient      1.00D-05
     Number of initial trial vectors          2
     Number of initial CI iterations          3
     Number of simultaneous trial vectors     2

@    This calculation converges to state no.   2 for the specified symmetry and spin species.

     Maximum number of NEO/NR iterations  24

    INFORMATION: Switched to "new" integral transformation (from 1988 ;-) )
    because more than 255 basis functions.


 ***********************************************
 ***** DIIS acceleration of SCF iterations *****
 ***********************************************

 C1-DIIS algorithm; max error vectors =    8

 Automatic occupation of symmetries with  64 electrons.

 Iter     Total energy    Error norm  Delta(E)    SCF occupation
 -----------------------------------------------------------------------------
   1  Screening settings (-IFTHRS, JTDIIS, DIFDEN, times)   -8    1    T  2.76D+01  2.77D+01
@  1  -432.233689765       6.51D+00  -4.32D+02    16  11   3   2
      Virial theorem: -V/T =      1.998322
@    MULPOP   C       0.37; C   _1  0.25; C   _2  0.25; C   _1  0.23; C   _2  0.23; C       0.37; N       1.31; O   _1 -1.03; O   _2 -1.03; H   _1 -0.20; 
@             H   _2 -0.20; H   _1 -0.18; H   _2 -0.18; H      -0.19; 
   1  Level shift: doubly occupied orbital energies shifted by -2.00D-01
 -----------------------------------------------------------------------------
   2  Screening settings (-IFTHRS, JTDIIS, DIFDEN, times)   -8    2    T  2.77D+01  2.77D+01
@  2  -433.829027511       2.98D+00  -1.60D+00    16  11   3   2
      Virial theorem: -V/T =      2.001294
@    MULPOP   C       0.90; C   _1  0.35; C   _2  0.35; C   _1  0.33; C   _2  0.33; C       0.41; N       0.38; O   _1 -0.52; O   _2 -0.52; H   _1 -0.40; 
@             H   _2 -0.40; H   _1 -0.40; H   _2 -0.40; H      -0.40; 
   2  Level shift: doubly occupied orbital energies shifted by -1.00D-01
 -----------------------------------------------------------------------------
   3  Screening settings (-IFTHRS, JTDIIS, DIFDEN, times)   -8    3    T  2.75D+01  2.76D+01
@  3  -434.207849181       7.13D-01  -3.79D-01    16  11   3   2
      Virial theorem: -V/T =      2.000684
@    MULPOP   C       1.71; C   _1  0.22; C   _2  0.22; C   _1  0.45; C   _2  0.45; C       0.27; N       0.70; O   _1 -0.90; O   _2 -0.90; H   _1 -0.45; 
@             H   _2 -0.45; H   _1 -0.44; H   _2 -0.44; H      -0.44; 
   3  Level shift: doubly occupied orbital energies shifted by -2.50D-02
 -----------------------------------------------------------------------------
   4  Screening settings (-IFTHRS, JTDIIS, DIFDEN, times)   -8    4    T  2.75D+01  2.75D+01
@  4  -434.233219985       1.86D-01  -2.54D-02    16  11   3   2
      Virial theorem: -V/T =      2.002473
@    MULPOP   C       1.83; C   _1  0.17; C   _2  0.17; C   _1  0.51; C   _2  0.51; C       0.28; N       0.55; O   _1 -0.87; O   _2 -0.87; H   _1 -0.45; 
@             H   _2 -0.45; H   _1 -0.45; H   _2 -0.45; H      -0.46; 
   4  Level shift: doubly occupied orbital energies shifted by -1.25D-02
 -----------------------------------------------------------------------------
   5  Screening settings (-IFTHRS, JTDIIS, DIFDEN, times)  -10    5    F  2.78D+01  2.79D+01
@  5  -434.235888415       5.57D-02  -2.67D-03    16  11   3   2
      Virial theorem: -V/T =      2.001902
@    MULPOP   C       1.86; C   _1  0.15; C   _2  0.15; C   _1  0.50; C   _2  0.50; C       0.26; N       0.55; O   _1 -0.87; O   _2 -0.87; H   _1 -0.44; 
@             H   _2 -0.44; H   _1 -0.44; H   _2 -0.44; H      -0.44; 
 -----------------------------------------------------------------------------
   6  Screening settings (-IFTHRS, JTDIIS, DIFDEN, times)  -10    6    T  2.76D+01  2.76D+01
@  6  -434.236225801       1.56D-02  -3.37D-04    16  11   3   2
      Virial theorem: -V/T =      2.001819
@    MULPOP   C       1.87; C   _1  0.14; C   _2  0.14; C   _1  0.50; C   _2  0.50; C       0.26; N       0.53; O   _1 -0.87; O   _2 -0.87; H   _1 -0.44; 
@             H   _2 -0.44; H   _1 -0.44; H   _2 -0.44; H      -0.44; 
 -----------------------------------------------------------------------------
   7  Screening settings (-IFTHRS, JTDIIS, DIFDEN, times)  -13    7    F  2.83D+01  2.83D+01
@  7  -434.236259302       6.33D-03  -3.35D-05    16  11   3   2
      Virial theorem: -V/T =      2.001856
@    MULPOP   C       1.88; C   _1  0.14; C   _2  0.14; C   _1  0.50; C   _2  0.50; C       0.26; N       0.52; O   _1 -0.87; O   _2 -0.87; H   _1 -0.44; 
@             H   _2 -0.44; H   _1 -0.44; H   _2 -0.44; H      -0.44; 
 -----------------------------------------------------------------------------
   8  Screening settings (-IFTHRS, JTDIIS, DIFDEN, times)  -13    8    T  2.79D+01  2.79D+01
@  8  -434.236264558       2.12D-03  -5.26D-06    16  11   3   2
      Virial theorem: -V/T =      2.001844
@    MULPOP   C       1.88; C   _1  0.14; C   _2  0.14; C   _1  0.50; C   _2  0.50; C       0.26; N       0.52; O   _1 -0.87; O   _2 -0.87; H   _1 -0.44; 
@             H   _2 -0.44; H   _1 -0.44; H   _2 -0.44; H      -0.44; 
 -----------------------------------------------------------------------------
   9  Screening settings (-IFTHRS, JTDIIS, DIFDEN, times)  -13    9    T  2.79D+01  2.79D+01
@  9  -434.236265125       6.60D-04  -5.67D-07    16  11   3   2
      Virial theorem: -V/T =      2.001841
@    MULPOP   C       1.88; C   _1  0.14; C   _2  0.14; C   _1  0.50; C   _2  0.50; C       0.26; N       0.52; O   _1 -0.87; O   _2 -0.87; H   _1 -0.44; 
@             H   _2 -0.44; H   _1 -0.44; H   _2 -0.44; H      -0.44; 
 -----------------------------------------------------------------------------
  10  Screening settings (-IFTHRS, JTDIIS, DIFDEN, times)  -13   10    T  2.77D+01  2.77D+01
@ 10  -434.236265178       2.13D-04  -5.31D-08    16  11   3   2
      Virial theorem: -V/T =      2.001843
@    MULPOP   C       1.88; C   _1  0.14; C   _2  0.14; C   _1  0.50; C   _2  0.50; C       0.26; N       0.52; O   _1 -0.87; O   _2 -0.87; H   _1 -0.44; 
@             H   _2 -0.44; H   _1 -0.44; H   _2 -0.44; H      -0.44; 
 -----------------------------------------------------------------------------
  11  Screening settings (-IFTHRS, JTDIIS, DIFDEN, times)  -13   11    T  2.77D+01  2.77D+01
@ 11  -434.236265186       8.11D-05  -7.97D-09    16  11   3   2
      Virial theorem: -V/T =      2.001842
@    MULPOP   C       1.88; C   _1  0.14; C   _2  0.14; C   _1  0.50; C   _2  0.50; C       0.26; N       0.52; O   _1 -0.87; O   _2 -0.87; H   _1 -0.44; 
@             H   _2 -0.44; H   _1 -0.44; H   _2 -0.44; H      -0.44; 
 -----------------------------------------------------------------------------
  12  Screening settings (-IFTHRS, JTDIIS, DIFDEN, times)  -13   12    T  2.76D+01  2.76D+01
@ 12  -434.236265187       3.32D-05  -1.40D-09    16  11   3   2
      Virial theorem: -V/T =      2.001842
@    MULPOP   C       1.88; C   _1  0.14; C   _2  0.14; C   _1  0.50; C   _2  0.50; C       0.26; N       0.52; O   _1 -0.87; O   _2 -0.87; H   _1 -0.44; 
@             H   _2 -0.44; H   _1 -0.44; H   _2 -0.44; H      -0.44; 
 -----------------------------------------------------------------------------
  13  Screening settings (-IFTHRS, JTDIIS, DIFDEN, times)  -13   13    T  2.75D+01  2.76D+01
@ 13  -434.236265188       1.93D-05  -2.28D-10    16  11   3   2
      Virial theorem: -V/T =      2.001842
@    MULPOP   C       1.88; C   _1  0.14; C   _2  0.14; C   _1  0.50; C   _2  0.50; C       0.26; N       0.52; O   _1 -0.87; O   _2 -0.87; H   _1 -0.44; 
@             H   _2 -0.44; H   _1 -0.44; H   _2 -0.44; H      -0.44; 
 -----------------------------------------------------------------------------
  14  Screening settings (-IFTHRS, JTDIIS, DIFDEN, times)  -13   14    T  2.76D+01  2.76D+01
@ 14  -434.236265188       6.53D-06  -1.13D-10    16  11   3   2
      Virial theorem: -V/T =      2.001842
@    MULPOP   C       1.88; C   _1  0.14; C   _2  0.14; C   _1  0.50; C   _2  0.50; C       0.26; N       0.52; O   _1 -0.87; O   _2 -0.87; H   _1 -0.44; 
@             H   _2 -0.44; H   _1 -0.44; H   _2 -0.44; H      -0.44; 
 -----------------------------------------------------------------------------
  15  Screening settings (-IFTHRS, JTDIIS, DIFDEN, times)  -13   15    T  2.76D+01  2.76D+01
@ 15  -434.236265188       2.47D-06   2.16D-12    16  11   3   2
      Virial theorem: -V/T =      2.001842
@    MULPOP   C       1.88; C   _1  0.14; C   _2  0.14; C   _1  0.50; C   _2  0.50; C       0.26; N       0.52; O   _1 -0.87; O   _2 -0.87; H   _1 -0.44; 
@             H   _2 -0.44; H   _1 -0.44; H   _2 -0.44; H      -0.44; 
 -----------------------------------------------------------------------------
  16  Screening settings (-IFTHRS, JTDIIS, DIFDEN, times)  -13   16    T  2.74D+01  2.74D+01
@ 16  -434.236265188       1.14D-06  -1.03D-11    16  11   3   2
      Virial theorem: -V/T =      2.001842
@    MULPOP   C       1.88; C   _1  0.14; C   _2  0.14; C   _1  0.50; C   _2  0.50; C       0.26; N       0.52; O   _1 -0.87; O   _2 -0.87; H   _1 -0.44; 
@             H   _2 -0.44; H   _1 -0.44; H   _2 -0.44; H      -0.44; 
 -----------------------------------------------------------------------------
  17  Screening settings (-IFTHRS, JTDIIS, DIFDEN, times)  -13   17    T  2.74D+01  2.74D+01
@ 17  -434.236265188       4.97D-07  -9.09D-13    16  11   3   2

@ *** DIIS converged in  17 iterations !
@     Converged SCF energy, gradient:   -434.236265187698    4.97D-07
    - total time used in SIRFCK :              0.00 seconds

 --- Writing SIRIFC interface file

 CPU and wall time for SCF :     470.938     471.099


 ----- Output from SIRIUS MP2 module -----

 Reference: H.J.Aa.Jensen, P.Jorgensen, H.Agren, and J.Olsen,
            J. Chem. Phys. 88, 3834 (1988); 89, 5354 (1988)

 Checking that the closed shell orbitals are canonical Hartree-Fock orbitals

    Number of electrons  :   64
    Closed shell orbitals:   16   11    3    2

 Generating Fock matrix

 Hartree-Fock electronic energy:        -848.039642436202
 Hartree-Fock total      energy:        -434.236265187704

 Hartree-Fock orbital energies, symmetry 1 ( A1 ),   16 occupied SCF orbitals

       -20.61274557   -15.86119148   -11.31670698   -11.28430660   -11.28239295
       -11.27394761    -1.61342649    -1.20449524    -1.10133802    -0.96692055
        -0.83244469    -0.78484837    -0.71033812    -0.65219092    -0.55613432
        -0.49942572     0.02656989     0.04406010     0.06215653     0.10458159
         0.13116563     0.13478452     0.15078695     0.15666086     0.17312596
         0.18059915     0.21518802     0.25908867     0.28802474     0.30342918
         0.31167850     0.34012504     0.35136050     0.35985122     0.37144290
         0.39671056     0.41244944     0.43774231     0.46391119     0.48589283
         0.51624124     0.56050761     0.58241541     0.58631589     0.63122413
         0.65247588     0.65949954     0.67813927     0.72848409     0.73467172
         0.74302287     0.83804595     0.88458240     0.93104604     0.95936943
         0.96471076     1.00785475     1.05721115     1.08404705     1.13899490
         1.27876208     1.36257134     1.37889856     1.44826076     1.49694017
         1.51362118     1.55388037     1.57134986     1.59438205     1.61199793
         1.68319435     1.72332565     1.74499436     1.76679532     1.87410554
         1.93932745     1.95776861     2.01048770     2.01818039     2.13229395
         2.16682453     2.23465097     2.31396471     2.37104325     2.43527051
         2.44849252     2.55786555     2.72189081     2.77819286     2.83720684
         2.88679795     2.96988559     3.03905494     3.15895567     3.27378591
         3.43619309     3.76330770     3.98189562     4.08992504     4.24587354
        19.80757581    20.34095563    20.45996262    20.62148680    23.35520627
        23.42684563    23.43504374    23.82548273    23.92584808    24.12950861
        27.09504176    31.27741717    35.81342017    39.72811563    39.84463058

 Hartree-Fock orbital energies, symmetry 2 ( B1 ),   11 occupied SCF orbitals

       -20.61279724   -11.28434703   -11.27404294    -1.40549412    -1.05595112
        -0.86847820    -0.73198123    -0.65791454    -0.62662103    -0.53240345
        -0.49443827     0.03601261     0.05990649     0.13025029     0.13318168
         0.15339260     0.17411333     0.18378168     0.21467160     0.26187209
         0.28930728     0.31373790     0.33349684     0.36297965     0.36950801
         0.39429690     0.42213153     0.43856569     0.47190854     0.56927977
         0.57843324     0.59229927     0.64938805     0.67075027     0.68039447
         0.70023924     0.75434120     0.76133927     0.82910201     0.84307634
         0.86750683     0.93323522     1.01500698     1.14162853     1.20824079
         1.25189506     1.31220015     1.41069326     1.42305649     1.48621906
         1.57266103     1.59223412     1.61288383     1.63769450     1.70900947
         1.76126970     1.77115853     1.79149660     1.89201982     1.92800166
         2.00140297     2.08999487     2.23453559     2.26404150     2.33994391
         2.34827795     2.38877540     2.53283057     2.58322413     2.75439088
         2.89854230     2.93451515     3.10817256     3.28467694     3.33551129
         3.41255545     3.75721155     3.86155351     4.22753240    20.30441929
        20.48384154    22.91465350    23.34385215    23.39391912    23.93874377
        24.12196525    24.31005004    31.44668155    35.55924319    39.64440822
        40.03994864

 Hartree-Fock orbital energies, symmetry 3 ( B2 ),    3 occupied SCF orbitals

        -0.72269205    -0.53688060    -0.37820053     0.03147665     0.10683967
         0.12670748     0.13907687     0.18354093     0.19411178     0.24623345
         0.31953669     0.34345928     0.37339519     0.44513582     0.53388190
         0.58789526     0.64285175     0.71482217     0.78642094     0.83935599
         0.87349263     0.92362387     0.92683481     0.98757400     1.14667203
         1.28609491     1.29983085     1.47198768     1.48050157     1.61884296
         1.67422304     1.70920676     1.84780372     1.90000486     1.97807371
         2.08231109     2.17875344     2.29593458     2.53625995     2.68827833
         3.67220875     3.78292072    22.54577279    22.69503527    22.83068861
        23.02713606    30.56762136    39.42417479

 Hartree-Fock orbital energies, symmetry 4 ( A2 ),    2 occupied SCF orbitals

        -0.45656796    -0.36969032     0.08590399     0.13134886     0.18581596
         0.29857171     0.41329695     0.49063888     0.54823696     0.66178409
         0.73607475     0.89501055     0.90201931     0.94502871     1.03579838
         1.09332996     1.21389770     1.24779409     1.33921277     1.48888842
         1.66919595     1.68859166     1.85848069     2.00254638     2.11536971
         2.21724737     2.35707097     2.47238293     2.60916893     3.66876244
         4.00413716    22.69232176    22.85925790    39.49939262

    E(LUMO) :     0.02656989   (in symmetry 1)
  - E(HOMO) :    -0.36969032   (in symmetry 4)
  --------------------------
    gap     :     0.39626021

---> (Re)generating AOTWOINT


     ************************************************************************
     ************************** Output from HERINT **************************
     ************************************************************************


 Threshold for neglecting two-electron integrals:  1.00D-12
 HERMIT - Number of two-electron integrals written:   203838667 ( 23.5% )
 HERMIT - Megabytes written:                           3111.635

  Time used in TWOINT     is      39.17 seconds

 2-el. integral transformation level 5: Total CPU and WALL times (sec)     409.719     412.625

 MP2 move   0.991739 electrons to unoccupied HF orbitals


@   Hartree-Fock total energy   :          -434.2362651877
@   + MP2 contribution          :            -1.7251554127
@   = MP2 second order energy   :          -435.9614206004

 Natural orbital occupation numbers, symmetry 1 (irrep A1 )
 Sum =    32.00731645; RHF =    32.00000000; Difference =     0.00731645

         1.99928987     1.99907496     1.99876139     1.99875596     1.99875138
         1.99874637     1.98695811     1.98412710     1.97952856     1.97256249
         1.96900978     1.96842695     1.96537538     1.96218289     1.95516493
         1.94677915     0.04256169     0.03423512     0.02557124     0.02376463
         0.01918553     0.01861792     0.01723195     0.01648544     0.01378847
         0.01267788     0.01165450     0.00982296     0.00852473     0.00788393
         0.00742115     0.00666410     0.00563848     0.00450165     0.00307899
         0.00294476     0.00269510     0.00260832     0.00219886     0.00199212
         0.00185320     0.00167024     0.00159152     0.00130916     0.00120310
         0.00116212     0.00105973     0.00096114     0.00071603     0.00065131
         0.00061205     0.00053598     0.00049896     0.00046304     0.00043909
         0.00041643     0.00040137     0.00038699     0.00037684     0.00035081
         0.00034139     0.00032283     0.00031236     0.00028989     0.00026680
         0.00025931     0.00022565     0.00021405     0.00020233     0.00019541
         0.00018587     0.00018532     0.00017570     0.00016988     0.00016794
         0.00016164     0.00015565     0.00014951     0.00014075     0.00013298
         0.00012531     0.00012373     0.00012175     0.00011083     0.00010509
         0.00009364     0.00007745     0.00007119     0.00005755     0.00005472
         0.00005120     0.00003961     0.00003412     0.00002764     0.00002048
         0.00001775     0.00001453     0.00001241     0.00001117     0.00000933
         0.00000873     0.00000836     0.00000687     0.00000310     0.00000285
         0.00000196     0.00000102     0.00000055     0.00000036     0.00000018
         0.00000016     0.00000000    -0.00000010    -0.00000051    -0.00005571

 Natural orbital occupation numbers, symmetry 2 (irrep B1 )
 Sum =    21.95409728; RHF =    22.00000000; Difference =    -0.04590272

         1.99928975     1.99875711     1.99875075     1.98416279     1.98002257
         1.97275505     1.96274298     1.96062247     1.95483078     1.95433059
         1.94651323     0.03824494     0.02540665     0.02372507     0.01907828
         0.01660362     0.01595298     0.01515241     0.01122785     0.01050469
         0.00911961     0.00768630     0.00576224     0.00539562     0.00513732
         0.00398357     0.00312641     0.00272930     0.00240552     0.00212743
         0.00173292     0.00162206     0.00151940     0.00131791     0.00117688
         0.00102187     0.00096834     0.00069480     0.00064144     0.00056790
         0.00049190     0.00044010     0.00042321     0.00037368     0.00035255
         0.00033896     0.00030443     0.00029234     0.00026997     0.00025978
         0.00023750     0.00021133     0.00019852     0.00018789     0.00018267
         0.00017782     0.00017024     0.00016935     0.00016009     0.00015423
         0.00014365     0.00013376     0.00012876     0.00012579     0.00011876
         0.00011198     0.00009495     0.00008942     0.00006797     0.00005505
         0.00004561     0.00003702     0.00003060     0.00002850     0.00002341
         0.00001506     0.00001433     0.00001140     0.00001058     0.00000857
         0.00000469     0.00000352     0.00000180     0.00000124     0.00000058
         0.00000027     0.00000014    -0.00000003    -0.00000021    -0.00000068
        -0.00001715

 Natural orbital occupation numbers, symmetry 3 (irrep B2 )
 Sum =     6.07741159; RHF =     6.00000000; Difference =     0.07741159

         1.95083080     1.94423312     1.90914403     0.10191644     0.06691741
         0.02956787     0.01040727     0.01028173     0.00870966     0.00795592
         0.00617227     0.00528301     0.00449995     0.00387756     0.00342013
         0.00305966     0.00151093     0.00143681     0.00099654     0.00088795
         0.00086240     0.00066042     0.00060659     0.00049543     0.00047291
         0.00041712     0.00033341     0.00029026     0.00025031     0.00023050
         0.00019723     0.00019556     0.00018981     0.00017677     0.00015350
         0.00013003     0.00012160     0.00011113     0.00010212     0.00008346
         0.00008029     0.00006194     0.00003557     0.00001992     0.00001043
         0.00000749     0.00000506     0.00000124

 Natural orbital occupation numbers, symmetry 4 (irrep A2 )
 Sum =     3.96117468; RHF =     4.00000000; Difference =    -0.03882532

         1.91660439     1.90842534     0.06641427     0.01463887     0.01039539
         0.00928960     0.00793194     0.00570892     0.00513043     0.00405345
         0.00356417     0.00153859     0.00120207     0.00093391     0.00077882
         0.00072851     0.00067308     0.00056335     0.00040719     0.00037012
         0.00034054     0.00029704     0.00021441     0.00019696     0.00016299
         0.00013288     0.00011667     0.00010383     0.00009345     0.00006942
         0.00005067     0.00002057     0.00001750     0.00000531

 Time used for MP2 natural orbitals :     441.125 CPU seconds,     444.030 wall seconds.

 CPU and wall time for MP2 :     441.125     444.030


        SIRIUS MCSCF optimization (SIROPT)
 ================================================


 Fock matrix screening setting for SIRCNO: IFTHRS =    9


 ----- Output from SIRIUS CI module (CICTL) -----




 2-el. integral transformation level 0: Total CPU and WALL times (sec)     102.250     102.297


 --- SIRCI.CIST1: plus combination of all degenerate
                 configurations is used as start vectors.


 (CIST1) 18 lowest diagonal elements:

 Element no. Config.no.    Active energy      Total energy

         1 :          1    -17.1410919097   -434.0039442491
         2 :         22    -17.0367066601   -433.8995589995
         3 :         28    -16.8812107298   -433.7440630692
         4 :          5    -16.8625420694   -433.7253944088
         5 :          6    -16.8619570244   -433.7248093638
         6 :          3    -16.8247907349   -433.6876430743
         7 :         24    -16.7729688086   -433.6358211480
         8 :          2    -16.7710191009   -433.6338714403
         9 :          7    -16.7537273141   -433.6165796535
        10 :         23    -16.7532572229   -433.6161095623
        11 :         25    -16.7286945354   -433.5915468748
        12 :         19    -16.6920318494   -433.5548841888
        13 :         29    -16.5843039091   -433.4471562485
        14 :         12    -16.5695707219   -433.4324230613
        15 :         11    -16.5589490878   -433.4218014272
        16 :         27    -16.4514993005   -433.3143516399
        17 :         26    -16.4307527227   -433.2936050621
        18 :         13    -16.4301884931   -433.2930408325


 Convergence threshold for CI optimization :     0.00000500



 *** Reached maximum number of CI iterations:    3
              2 CI roots are not converged.


@ Final CI energies and residuals in symmetry 1 (irrep A1 )
@    1     -434.039314181230168       8.82D-03
@    2     -433.914622985164556       5.28D-03
@    3     -433.823324436885912       4.73D-02
@    4     -433.735109200147065       7.71D-02
@    5     -433.688946474361501       8.52D-02
@    6     -433.659021481601371       1.10D-01

   --- OUTPUT FROM SIRCNO     Keyword = FD+NO 


 Occupations of CAS natural orbitals:

 Symmetry  1 ( irrep A1  in C2v )

   1.999991969

 Symmetry  2 ( irrep B1  in C2v )

   1.999997405

 Symmetry  3 ( irrep B2  in C2v )

   1.008957728   0.991411697

 Symmetry  4 ( irrep A2  in C2v )

   1.993206588   1.963008532   0.043426081


 --- MACRO ITERATION  1 ---
 --------------------------

 2-el. integral transformation level 3: Total CPU and WALL times (sec)     102.234     102.255

 Fock matrix screening setting for this macro iteration: 10^( -9)

 Total MCSCF energy       :          -433.914622988689814  (MACRO    1)

 - Nuclear repulsion      :           413.803377248498634
 - Inactive energy        :          -830.666229589148770
 - Active energy          :           -17.051770648039664

 Norm of total gradient   :             1.309259017882
 -    of CI gradient      :             0.010553472638
 -    of orbital gradient :             1.309216483291
      Virial theorem: -V/T =      1.995147
@    MULPOP   C       1.86; C   _1  0.34; C   _2  0.34; C   _1  0.52; C   _2  0.52; C       0.59; N       0.11; O   _1 -0.95; O   _2 -0.95; H   _1 -0.49; 
@             H   _2 -0.49; H   _1 -0.47; H   _2 -0.47; H      -0.47; 

 (SIRNEO) iteration (  1,  4)
 Micro iteration termination criterion met, EVAL(ISTATE+1) = -9.24D-02

   --- OUTPUT FROM SIRCNO     Keyword = FD+NO 


 Occupations of CAS natural orbitals:

 Symmetry  1 ( irrep A1  in C2v )

   1.999959744

 Symmetry  2 ( irrep B1  in C2v )

   1.999955212

 Symmetry  3 ( irrep B2  in C2v )

   1.169898359   0.843673229

 Symmetry  4 ( irrep A2  in C2v )

   1.982356695   1.806777582   0.197379179


 --- MACRO ITERATION  2 ---
 --------------------------

 2-el. integral transformation level 3: Total CPU and WALL times (sec)     102.625     102.690

 Fock matrix screening setting for this macro iteration: 10^( -9)

 Total MCSCF energy       :          -434.014214691365794  (MACRO    2)

 - Nuclear repulsion      :           413.803377248498634
 - Inactive energy        :          -830.698689943002364
 - Active energy          :           -17.118901996862068

 Norm of total gradient   :             0.830469552200
 -    of CI gradient      :             0.088350773493
 -    of orbital gradient :             0.825756512511
      Virial theorem: -V/T =      1.997430
@    MULPOP   C       1.71; C   _1  0.33; C   _2  0.33; C   _1  0.51; C   _2  0.51; C       0.37; N       0.34; O   _1 -0.85; O   _2 -0.85; H   _1 -0.49; 
@             H   _2 -0.49; H   _1 -0.47; H   _2 -0.47; H      -0.49; 

 Residual norm when dim(red L) =  13
 NEO root     CSF        orbital          total
    1     0.05520042     0.05557254     0.07832875 converged

 (NEONEX) NEO auxiliary root no.  1 is converged.

 Residual norm when dim(red L) =  14
 NEO root     CSF        orbital          total
    2     0.07336815     0.02361126     0.07707385 converged

 (NEONEX) NEO vector is converged.

   --- OUTPUT FROM SIRCNO     Keyword = FD+NO 


 Occupations of CAS natural orbitals:

 Symmetry  1 ( irrep A1  in C2v )

   1.999938950

 Symmetry  2 ( irrep B1  in C2v )

   1.999947358

 Symmetry  3 ( irrep B2  in C2v )

   1.301708022   0.720408193

 Symmetry  4 ( irrep A2  in C2v )

   1.972877167   1.679531721   0.325588589


 --- MACRO ITERATION  3 ---
 --------------------------

 2-el. integral transformation level 3: Total CPU and WALL times (sec)     102.125     102.168

 Fock matrix screening setting for this macro iteration: 10^( -9)

 Total MCSCF energy       :          -434.063573051702917  (MACRO    3)

 - Nuclear repulsion      :           413.803377248498634
 - Inactive energy        :          -830.228878943463769
 - Active energy          :           -17.638071356737807

 Norm of total gradient   :             0.210350790960
 -    of CI gradient      :             0.068787751549
 -    of orbital gradient :             0.198785564100
      Virial theorem: -V/T =      2.000991
@    MULPOP   C       1.88; C   _1  0.15; C   _2  0.15; C   _1  0.53; C   _2  0.53; C       0.28; N       0.57; O   _1 -1.00; O   _2 -1.00; H   _1 -0.43; 
@             H   _2 -0.43; H   _1 -0.42; H   _2 -0.42; H      -0.40; 

 Residual norm when dim(red L) =  11
 NEO root     CSF        orbital          total
    1     0.02067152     0.04213093     0.04692896 converged

 (NEONEX) NEO auxiliary root no.  1 is converged.

 Residual norm when dim(red L) =  15
 NEO root     CSF        orbital          total
    2     0.02521662     0.01070860     0.02739621 converged

 (NEONEX) NEO vector is converged.

   --- OUTPUT FROM SIRCNO     Keyword = FD+NO 


 Occupations of CAS natural orbitals:

 Symmetry  1 ( irrep A1  in C2v )

   1.999864756

 Symmetry  2 ( irrep B1  in C2v )

   1.999911724

 Symmetry  3 ( irrep B2  in C2v )

   1.513458304   0.516661564

 Symmetry  4 ( irrep A2  in C2v )

   1.968682776   1.447311412   0.554109463


 --- MACRO ITERATION  4 ---
 --------------------------

 2-el. integral transformation level 3: Total CPU and WALL times (sec)     100.656     100.730

 Fock matrix screening setting for this macro iteration: 10^( -9)

 Total MCSCF energy       :          -434.068842942494769  (MACRO    4)

 - Nuclear repulsion      :           413.803377248498634
 - Inactive energy        :          -826.225240012892868
 - Active energy          :           -21.646980178100556

 Norm of total gradient   :             0.392296895970
 -    of CI gradient      :             0.068937034327
 -    of orbital gradient :             0.386192361248
      Virial theorem: -V/T =      2.000705
@    MULPOP   C       1.98; C   _1  0.14; C   _2  0.14; C   _1  0.49; C   _2  0.49; C       0.32; N       0.48; O   _1 -0.94; O   _2 -0.94; H   _1 -0.44; 
@             H   _2 -0.44; H   _1 -0.44; H   _2 -0.44; H      -0.42; 

 (SIRNEO) iteration (  4,  4)
 Micro iteration termination criterion met, EVAL(ISTATE+1) = -4.74D-03

   --- OUTPUT FROM SIRCNO     Keyword = FD+NO 


 Occupations of CAS natural orbitals:

 Symmetry  1 ( irrep A1  in C2v )

   1.999861740

 Symmetry  2 ( irrep B1  in C2v )

   1.999909491

 Symmetry  3 ( irrep B2  in C2v )

   1.525710912   0.505396092

 Symmetry  4 ( irrep A2  in C2v )

   1.967671802   1.435334448   0.566115514


 --- MACRO ITERATION  5 ---
 --------------------------

 2-el. integral transformation level 3: Total CPU and WALL times (sec)     101.312     101.394

 Fock matrix screening setting for this macro iteration: 10^( -9)

 Total MCSCF energy       :          -434.071295896115657  (MACRO    5)

 - Nuclear repulsion      :           413.803377248498634
 - Inactive energy        :          -829.982498940324831
 - Active energy          :           -17.892174204289475

 Norm of total gradient   :             0.060373821998
 -    of CI gradient      :             0.036323459596
 -    of orbital gradient :             0.048224523487
      Virial theorem: -V/T =      2.000658
@    MULPOP   C       2.00; C   _1  0.12; C   _2  0.12; C   _1  0.50; C   _2  0.50; C       0.31; N       0.48; O   _1 -0.94; O   _2 -0.94; H   _1 -0.44; 
@             H   _2 -0.44; H   _1 -0.43; H   _2 -0.43; H      -0.42; 

 Residual norm when dim(red L) =   8
 NEO root     CSF        orbital          total
    1     0.03878581     0.07432095     0.08383282 converged

 (NEONEX) NEO auxiliary root no.  1 is converged.

 (SIRNEO) iteration (  5, 12)
 Micro iteration termination criterion met, EVAL(ISTATE+1) = -1.72D-06

   --- OUTPUT FROM SIRCNO     Keyword = FD+NO 


 Occupations of CAS natural orbitals:

 Symmetry  1 ( irrep A1  in C2v )

   1.999061067

 Symmetry  2 ( irrep B1  in C2v )

   1.999953481

 Symmetry  3 ( irrep B2  in C2v )

   1.568061878   0.451567284

 Symmetry  4 ( irrep A2  in C2v )

   1.980503502   1.355652718   0.645200071


 --- MACRO ITERATION  6 ---
 --------------------------

 2-el. integral transformation level 3: Total CPU and WALL times (sec)     102.469     102.539

 Fock matrix screening setting for this macro iteration: 10^( -9)

 Total MCSCF energy       :          -434.072906635300853  (MACRO    6)

 - Nuclear repulsion      :           413.803377248498634
 - Inactive energy        :          -829.165304466876478
 - Active energy          :           -18.710979416923006

 Norm of total gradient   :             0.029501423008
 -    of CI gradient      :             0.026321122556
 -    of orbital gradient :             0.013324130999
      Virial theorem: -V/T =      2.000606
@    MULPOP   C       2.01; C   _1  0.12; C   _2  0.12; C   _1  0.48; C   _2  0.48; C       0.32; N       0.50; O   _1 -0.92; O   _2 -0.92; H   _1 -0.44; 
@             H   _2 -0.44; H   _1 -0.44; H   _2 -0.44; H      -0.43; 

 Residual norm when dim(red L) =   8
 NEO root     CSF        orbital          total
    1     0.04021152     0.05925151     0.07160801 converged

 (NEONEX) NEO auxiliary root no.  1 is converged.

 Residual norm when dim(red L) =  26
 NEO root     CSF        orbital          total
    2     0.00420665     0.00178443     0.00456948 converged

 (NEONEX) NEO vector is converged.

   --- OUTPUT FROM SIRCNO     Keyword = FD+NO 


 Occupations of CAS natural orbitals:

 Symmetry  1 ( irrep A1  in C2v )

   1.999759816

 Symmetry  2 ( irrep B1  in C2v )

   1.999994408

 Symmetry  3 ( irrep B2  in C2v )

   1.628589137   0.373570236

 Symmetry  4 ( irrep A2  in C2v )

   1.998078777   1.171571773   0.828435853


 --- MACRO ITERATION  7 ---
 --------------------------

 2-el. integral transformation level 3: Total CPU and WALL times (sec)     103.547     103.570

 Fock matrix screening setting for this macro iteration: 10^( -9)

 Total MCSCF energy       :          -434.071020254820837  (MACRO    7)

 - Nuclear repulsion      :           413.803377248498634
 - Inactive energy        :          -828.886065173805264
 - Active energy          :           -18.988332329514197

 Norm of total gradient   :             0.153577029768
 -    of CI gradient      :             0.113366926082
 -    of orbital gradient :             0.103604267012
      Virial theorem: -V/T =      2.000305
@    MULPOP   C       2.01; C   _1  0.12; C   _2  0.12; C   _1  0.44; C   _2  0.44; C       0.37; N       0.50; O   _1 -0.88; O   _2 -0.88; H   _1 -0.45; 
@             H   _2 -0.45; H   _1 -0.45; H   _2 -0.45; H      -0.45; 

 (SIRSTP) Energy difference;
 actual, predicted and ratio:   0.001886380480016  -0.002472702040985   -0.762882

 (SIRSTP) step is too large -- backstep

   --- OUTPUT FROM SIRCNO     Keyword = FD+NO 


 Occupations of CAS natural orbitals:

 Symmetry  1 ( irrep A1  in C2v )

   1.999681559

 Symmetry  2 ( irrep B1  in C2v )

   1.999996034

 Symmetry  3 ( irrep B2  in C2v )

   1.618972364   0.382021423

 Symmetry  4 ( irrep A2  in C2v )

   1.999294809   1.226387117   0.773646694


 Optimization control: Step was too large, we backstep


 --- MACRO ITERATION  7 BACKSTEP NO.  1 ---

 2-el. integral transformation level 3: Total CPU and WALL times (sec)     101.125     101.148

 Fock matrix screening setting for this macro iteration: 10^( -9)

 Total MCSCF energy       :          -434.074502800096127  (MACRO    7)

 - Nuclear repulsion      :           413.803377248498634
 - Inactive energy        :          -828.976285104738736
 - Active energy          :           -18.901594943856018

 Norm of total gradient   :             0.070214741209
 -    of CI gradient      :             0.049759415428
 -    of orbital gradient :             0.049538979191
      Virial theorem: -V/T =      2.000488
@    MULPOP   C       2.01; C   _1  0.12; C   _2  0.12; C   _1  0.45; C   _2  0.45; C       0.35; N       0.52; O   _1 -0.89; O   _2 -0.89; H   _1 -0.45; 
@             H   _2 -0.45; H   _1 -0.44; H   _2 -0.44; H      -0.44; 

 Residual norm when dim(red L) =  10
 NEO root     CSF        orbital          total
    1     0.05310415     0.06979741     0.08770250 converged

 (NEONEX) NEO auxiliary root no.  1 is converged.

 Residual norm when dim(red L) =  14
 NEO root     CSF        orbital          total
    2     0.01097674     0.00623528     0.01262408 converged

 (NEONEX) NEO vector is converged.

   --- OUTPUT FROM SIRCNO     Keyword = FD+NO 


 Occupations of CAS natural orbitals:

 Symmetry  1 ( irrep A1  in C2v )

   1.999674079

 Symmetry  2 ( irrep B1  in C2v )

   1.999991818

 Symmetry  3 ( irrep B2  in C2v )

   1.504866068   0.497547952

 Symmetry  4 ( irrep A2  in C2v )

   1.997761244   1.364840200   0.635318638


 --- MACRO ITERATION  8 ---
 --------------------------

 2-el. integral transformation level 3: Total CPU and WALL times (sec)     101.297     101.398

 Fock matrix screening setting for this macro iteration: 10^( -9)

 Total MCSCF energy       :          -434.074360769431848  (MACRO    8)

 - Nuclear repulsion      :           413.803377248498634
 - Inactive energy        :          -829.044132584405361
 - Active energy          :           -18.833605433525104

 Norm of total gradient   :             0.016366313793
 -    of CI gradient      :             0.012027522379
 -    of orbital gradient :             0.011099321267
      Virial theorem: -V/T =      2.000598
@    MULPOP   C       1.99; C   _1  0.12; C   _2  0.12; C   _1  0.47; C   _2  0.47; C       0.33; N       0.53; O   _1 -0.90; O   _2 -0.90; H   _1 -0.45; 
@             H   _2 -0.45; H   _1 -0.44; H   _2 -0.44; H      -0.44; 

 Residual norm when dim(red L) =   8
 NEO root     CSF        orbital          total
    1     0.02492218     0.06083834     0.06574510 converged

 (NEONEX) NEO auxiliary root no.  1 is converged.

 Residual norm when dim(red L) =  14
 NEO root     CSF        orbital          total
    2     0.00252517     0.00181087     0.00310737 converged

 (NEONEX) NEO vector is converged.

   --- OUTPUT FROM SIRCNO     Keyword = FD+NO 


 Occupations of CAS natural orbitals:

 Symmetry  1 ( irrep A1  in C2v )

   1.999664204

 Symmetry  2 ( irrep B1  in C2v )

   1.999991641

 Symmetry  3 ( irrep B2  in C2v )

   1.522907977   0.479943397

 Symmetry  4 ( irrep A2  in C2v )

   1.997300493   1.354789964   0.645402324


 --- MACRO ITERATION  9 ---
 --------------------------

 2-el. integral transformation level 3: Total CPU and WALL times (sec)     101.328     101.406

 Fock matrix screening setting for this macro iteration: 10^( -9)

 Total MCSCF energy       :          -434.074464700572889  (MACRO    9)

 - Nuclear repulsion      :           413.803377248498634
 - Inactive energy        :          -829.214441953536038
 - Active energy          :           -18.663399995535478

 Norm of total gradient   :             0.003568595972
 -    of CI gradient      :             0.003086790804
[...]
      ----------------------------------------------------------------
         1    1.32148D+01  2.06D+00  1.31D+01  5.80D+02    1.16800D-01

 ** RSPCTL MICROITERATION NUMBER   11

 *** INFO, negative eigenvalues in reduced matrix. Symmetry  1,  triplet       F Dimension of reduced matrix =    24

 GP * SOLUTION vector at frequency     0.11680 a.u.
 after   12 linear transformations is      1.22533447D+04
 INERTIA (POS,ZER,NEG) of reduced matrix is   23    0    1
 Determinant of reduced matrix is -1.68 * 10 **-21.0

       No.  Residual tot.,    conf., and orb.    Bnorm      Frequency 
      ----------------------------------------------------------------
         1    1.39502D+01  6.09D+00  1.26D+01  6.82D+02    1.16800D-01

 ** RSPCTL MICROITERATION NUMBER   12

 *** INFO, negative eigenvalues in reduced matrix. Symmetry  1,  triplet       F Dimension of reduced matrix =    26

 GP * SOLUTION vector at frequency     0.11680 a.u.
 after   13 linear transformations is      1.25174341D+04
 INERTIA (POS,ZER,NEG) of reduced matrix is   25    0    1
 Determinant of reduced matrix is -6.05 * 10 **-24.0

       No.  Residual tot.,    conf., and orb.    Bnorm      Frequency 
      ----------------------------------------------------------------
         1    2.36004D+01  1.69D+01  1.65D+01  8.52D+02    1.16800D-01

 ** RSPCTL MICROITERATION NUMBER   13

 *** INFO, negative eigenvalues in reduced matrix. Symmetry  1,  triplet       F Dimension of reduced matrix =    28

 GP * SOLUTION vector at frequency     0.11680 a.u.
 after   14 linear transformations is      1.06211033D+04
 INERTIA (POS,ZER,NEG) of reduced matrix is   26    0    2
 Determinant of reduced matrix is  6.33 * 10 **-25.0

       No.  Residual tot.,    conf., and orb.    Bnorm      Frequency 
      ----------------------------------------------------------------
         1    7.31632D+01  7.65D+00  7.28D+01  1.19D+03    1.16800D-01

 ** RSPCTL MICROITERATION NUMBER   14

 *** INFO, negative eigenvalues in reduced matrix. Symmetry  1,  triplet       F Dimension of reduced matrix =    30

 GP * SOLUTION vector at frequency     0.11680 a.u.
 after   15 linear transformations is      1.17082938D+04
 INERTIA (POS,ZER,NEG) of reduced matrix is   28    0    2
 Determinant of reduced matrix is  1.20 * 10 **-26.0

       No.  Residual tot.,    conf., and orb.    Bnorm      Frequency 
      ----------------------------------------------------------------
         1    1.14200D+01  4.07D+00  1.07D+01  4.64D+02    1.16800D-01

 ** RSPCTL MICROITERATION NUMBER   15

 *** INFO, negative eigenvalues in reduced matrix. Symmetry  1,  triplet       F Dimension of reduced matrix =    32

 GP * SOLUTION vector at frequency     0.11680 a.u.
 after   16 linear transformations is      1.17632353D+04
 INERTIA (POS,ZER,NEG) of reduced matrix is   30    0    2
 Determinant of reduced matrix is  4.35 * 10 **-29.0

       No.  Residual tot.,    conf., and orb.    Bnorm      Frequency 
      ----------------------------------------------------------------
         1    6.52148D+00  4.36D+00  4.85D+00  4.64D+02    1.16800D-01

 ** RSPCTL MICROITERATION NUMBER   16

 *** INFO, negative eigenvalues in reduced matrix. Symmetry  1,  triplet       F Dimension of reduced matrix =    34

 GP * SOLUTION vector at frequency     0.11680 a.u.
 after   17 linear transformations is      1.17731388D+04
 INERTIA (POS,ZER,NEG) of reduced matrix is   32    0    2
 Determinant of reduced matrix is  3.43 * 10 **-31.0

       No.  Residual tot.,    conf., and orb.    Bnorm      Frequency 
      ----------------------------------------------------------------
         1    4.75136D+00  4.45D+00  1.67D+00  4.67D+02    1.16800D-01

 ** RSPCTL MICROITERATION NUMBER   17

 *** INFO, negative eigenvalues in reduced matrix. Symmetry  1,  triplet       F Dimension of reduced matrix =    36

 GP * SOLUTION vector at frequency     0.11680 a.u.
 after   18 linear transformations is      1.18274358D+04
 INERTIA (POS,ZER,NEG) of reduced matrix is   34    0    2
 Determinant of reduced matrix is  3.43 * 10 **-32.0

       No.  Residual tot.,    conf., and orb.    Bnorm      Frequency 
      ----------------------------------------------------------------
         1    4.12058D+00  1.88D+00  3.67D+00  4.79D+02    1.16800D-01

 ** RSPCTL MICROITERATION NUMBER   18

 *** INFO, negative eigenvalues in reduced matrix. Symmetry  1,  triplet       F Dimension of reduced matrix =    38

 GP * SOLUTION vector at frequency     0.11680 a.u.
 after   19 linear transformations is      1.18340776D+04
 INERTIA (POS,ZER,NEG) of reduced matrix is   36    0    2
 Determinant of reduced matrix is  3.57 * 10 **-35.0

       No.  Residual tot.,    conf., and orb.    Bnorm      Frequency 
      ----------------------------------------------------------------
         1    2.51153D+00  2.13D+00  1.32D+00  4.79D+02    1.16800D-01

 ** RSPCTL MICROITERATION NUMBER   19

 *** INFO, negative eigenvalues in reduced matrix. Symmetry  1,  triplet       F Dimension of reduced matrix =    40

 GP * SOLUTION vector at frequency     0.11680 a.u.
 after   20 linear transformations is      1.18396289D+04
 INERTIA (POS,ZER,NEG) of reduced matrix is   38    0    2
 Determinant of reduced matrix is  6.50 * 10 **-36.0

       No.  Residual tot.,    conf., and orb.    Bnorm      Frequency 
      ----------------------------------------------------------------
         1    1.61987D+00  5.49D-01  1.52D+00  4.81D+02    1.16800D-01

 ** RSPCTL MICROITERATION NUMBER   20

 *** INFO, negative eigenvalues in reduced matrix. Symmetry  1,  triplet       F Dimension of reduced matrix =    42

 GP * SOLUTION vector at frequency     0.11680 a.u.
 after   21 linear transformations is      1.18418969D+04
 INERTIA (POS,ZER,NEG) of reduced matrix is   40    0    2
 Determinant of reduced matrix is  1.30 * 10 **-39.0

       No.  Residual tot.,    conf., and orb.    Bnorm      Frequency 
      ----------------------------------------------------------------
         1    1.14093D+00  8.55D-01  7.55D-01  4.84D+02    1.16800D-01

 ** RSPCTL MICROITERATION NUMBER   21

 *** INFO, negative eigenvalues in reduced matrix. Symmetry  1,  triplet       F Dimension of reduced matrix =    44

 GP * SOLUTION vector at frequency     0.11680 a.u.
 after   22 linear transformations is      1.18423703D+04
 INERTIA (POS,ZER,NEG) of reduced matrix is   42    0    2
 Determinant of reduced matrix is  7.62 * 10 **-40.0

       No.  Residual tot.,    conf., and orb.    Bnorm      Frequency 
      ----------------------------------------------------------------
         1    9.75207D-01  5.69D-01  7.92D-01  4.85D+02    1.16800D-01

 ** RSPCTL MICROITERATION NUMBER   22

 *** INFO, negative eigenvalues in reduced matrix. Symmetry  1,  triplet       F Dimension of reduced matrix =    46

 GP * SOLUTION vector at frequency     0.11680 a.u.
 after   23 linear transformations is      1.18427741D+04
 INERTIA (POS,ZER,NEG) of reduced matrix is   44    0    2
 Determinant of reduced matrix is  4.08 * 10 **-43.0

       No.  Residual tot.,    conf., and orb.    Bnorm      Frequency 
      ----------------------------------------------------------------
         1    7.99585D-01  7.49D-01  2.80D-01  4.87D+02    1.16800D-01

 ** RSPCTL MICROITERATION NUMBER   23

 *** INFO, negative eigenvalues in reduced matrix. Symmetry  1,  triplet       F Dimension of reduced matrix =    48

 GP * SOLUTION vector at frequency     0.11680 a.u.
 after   24 linear transformations is      1.18433410D+04
 INERTIA (POS,ZER,NEG) of reduced matrix is   46    0    2
 Determinant of reduced matrix is  2.96 * 10 **-43.0

       No.  Residual tot.,    conf., and orb.    Bnorm      Frequency 
      ----------------------------------------------------------------
         1    5.19569D-01  5.34D-02  5.17D-01  4.90D+02    1.16800D-01

 ** RSPCTL MICROITERATION NUMBER   24

 *** INFO, negative eigenvalues in reduced matrix. Symmetry  1,  triplet       F Dimension of reduced matrix =    50

 GP * SOLUTION vector at frequency     0.11680 a.u.
 after   25 linear transformations is      1.18435949D+04
 INERTIA (POS,ZER,NEG) of reduced matrix is   48    0    2
 Determinant of reduced matrix is  1.60 * 10 **-46.0

       No.  Residual tot.,    conf., and orb.    Bnorm      Frequency 
      ----------------------------------------------------------------
         1    2.70433D-01  1.01D-01  2.51D-01  4.94D+02    1.16800D-01

 *** THE REQUESTED    1 SOLUTION VECTORS CONVERGED

 Convergence of RSP solution vectors, threshold = 1.00D-03
 ---------------------------------------------------------------
 (dimension of paired reduced space:   50)
 RSP solution vector no.    1; norm of residual   5.47D-04

 *** RSPCTL MICROITERATIONS CONVERGED
    YDIPLEN     YDIPLEN      freq1     freq2                Norm
 ---------------------------------------------------------------
                          0.058400  0.058400        494.18541825
  Time used in CRVEC2     is       2 hours 54 minutes  9 seconds


 ----- CALCULATING CONTRIBUTIONS TO SECOND HYPERPOLARIZABILITY -----


   Contribution                Term         Accumulated
 ------------------------------------------------------
 Na T[4] Nb Nc Nd275689765.55472153  275689765.55472153
 Na T[3] Nx Nyz -209246091.35688472   66443674.19783682
 Na X[3] Ny Nz    10564554.11554617   77008228.31338298
 Nx A[3] Ny Nz     3521518.03851538   80529746.35189837
 Na X[2] Nyz      -9390404.91854853   71139341.43334983
 Nx A[2] Nyz     -10297673.48547762   60841667.94787221

@ Cubic response function value in a.u. for
@ A operator, symmetry, frequency:   ZDIPLEN    1 -0.058400
@ B operator, symmetry, frequency:   ZDIPLEN    1  0.058400
@ C operator, symmetry, frequency:   ZDIPLEN    1 -0.058400
@ D operator, symmetry, frequency:   ZDIPLEN    1  0.058400

@ << A; B, C, D >>  =    60841667.94787221



   Contribution                Term         Accumulated
 ------------------------------------------------------
 Na T[4] Nb Nc Nd   806225.58668678     806225.58668678
 Na T[3] Nx Nyz     824679.63400344    1630905.22069021
 Na X[3] Ny Nz      924977.03284054    2555882.25353075
 Nx A[3] Ny Nz      954894.52054857    3510776.77407932
 Na X[2] Nyz        930045.62078969    4440822.39486901
 Nx A[2] Nyz      -1635496.37419783    2805326.02067118

@ Cubic response function value in a.u. for
@ A operator, symmetry, frequency:   XDIPLEN    2 -0.058400
@ B operator, symmetry, frequency:   XDIPLEN    2  0.058400
@ C operator, symmetry, frequency:   ZDIPLEN    1 -0.058400
@ D operator, symmetry, frequency:   ZDIPLEN    1  0.058400

@ << A; B, C, D >>  =     2805326.02067118



   Contribution                Term         Accumulated
 ------------------------------------------------------
 Na T[4] Nb Nc Nd   -64380.70063604     -64380.70063604
 Na T[3] Nx Nyz     -15177.30736626     -79558.00800229
 Na X[3] Ny Nz      152750.32978989      73192.32178759
 Nx A[3] Ny Nz       98507.30841331     171699.63020091
 Na X[2] Nyz         20703.38477964     192403.01498055
 Nx A[2] Nyz       -271119.73636497     -78716.72138442

@ Cubic response function value in a.u. for
@ A operator, symmetry, frequency:   YDIPLEN    3 -0.058400
@ B operator, symmetry, frequency:   YDIPLEN    3  0.058400
@ C operator, symmetry, frequency:   ZDIPLEN    1 -0.058400
@ D operator, symmetry, frequency:   ZDIPLEN    1  0.058400

@ << A; B, C, D >>  =      -78716.72138442



   Contribution                Term         Accumulated
 ------------------------------------------------------
 Na T[4] Nb Nc Nd   369134.67792205     369134.67792205
 Na T[3] Nx Nyz   -1173411.65206043    -804276.97413838
 Na X[3] Ny Nz      102717.02986306    -701559.94427531
 Nx A[3] Ny Nz      -28007.00657548    -729566.95085079
 Na X[2] Nyz       -160486.11556959    -890053.06642038
 Nx A[2] Nyz         93639.72463287    -796413.34178751

@ Cubic response function value in a.u. for
@ A operator, symmetry, frequency:   XDIPLEN    2 -0.058400
@ B operator, symmetry, frequency:   ZDIPLEN    1  0.058400
@ C operator, symmetry, frequency:   XDIPLEN    2 -0.058400
@ D operator, symmetry, frequency:   ZDIPLEN    1  0.058400

@ << A; B, C, D >>  =     -796413.34178751



   Contribution                Term         Accumulated
 ------------------------------------------------------
 Na T[4] Nb Nc Nd   -22578.93265333     -22578.93265333
 Na T[3] Nx Nyz     -29077.68810167     -51656.62075500
 Na X[3] Ny Nz       63133.99633810      11477.37558310
 Nx A[3] Ny Nz       13278.56274812      24755.93833122
 Na X[2] Nyz        -47708.35095173     -22952.41262051
 Nx A[2] Nyz       -149175.16551816    -172127.57813867

@ Cubic response function value in a.u. for
@ A operator, symmetry, frequency:   YDIPLEN    3 -0.058400
@ B operator, symmetry, frequency:   ZDIPLEN    1  0.058400
@ C operator, symmetry, frequency:   YDIPLEN    3 -0.058400
@ D operator, symmetry, frequency:   ZDIPLEN    1  0.058400

@ << A; B, C, D >>  =     -172127.57813867



   Contribution                Term         Accumulated
 ------------------------------------------------------
 Na T[4] Nb Nc Nd   472747.09198230     472747.09198230
 Na T[3] Nx Nyz   -1237834.31391309    -765087.22193079
 Na X[3] Ny Nz     -177305.35670734    -942392.57863813
 Nx A[3] Ny Nz        3144.23096072    -939248.34767741
 Na X[2] Nyz        217194.41983623    -722053.92784119
 Nx A[2] Nyz        -77775.19316134    -799829.12100253

@ Cubic response function value in a.u. for
@ A operator, symmetry, frequency:   ZDIPLEN    1 -0.058400
@ B operator, symmetry, frequency:   XDIPLEN    2  0.058400
@ C operator, symmetry, frequency:   ZDIPLEN    1 -0.058400
@ D operator, symmetry, frequency:   XDIPLEN    2  0.058400

@ << A; B, C, D >>  =     -799829.12100253



   Contribution                Term         Accumulated
 ------------------------------------------------------
 Na T[4] Nb Nc Nd   209769.44957377     209769.44957377
 Na T[3] Nx Nyz    -324893.16832638    -115123.71875262
 Na X[3] Ny Nz      139638.00071497      24514.28196235
 Nx A[3] Ny Nz       46546.00023832      71060.28220068
 Na X[2] Nyz        -22419.62685461      48640.65534607
 Nx A[2] Nyz        -67615.01155816     -18974.35621209

@ Cubic response function value in a.u. for
@ A operator, symmetry, frequency:   XDIPLEN    2 -0.058400
@ B operator, symmetry, frequency:   XDIPLEN    2  0.058400
@ C operator, symmetry, frequency:   XDIPLEN    2 -0.058400
@ D operator, symmetry, frequency:   XDIPLEN    2  0.058400

@ << A; B, C, D >>  =      -18974.35621209



   Contribution                Term         Accumulated
 ------------------------------------------------------
 Na T[4] Nb Nc Nd    -4798.83982618      -4798.83982618
 Na T[3] Nx Nyz       -430.65192070      -5229.49174689
 Na X[3] Ny Nz        8901.21022959       3671.71848271
 Nx A[3] Ny Nz        3460.30186700       7132.02034971
 Na X[2] Nyz         -7924.33830051       -792.31795080
 Nx A[2] Nyz        -15742.09718468     -16534.41513548

@ Cubic response function value in a.u. for
@ A operator, symmetry, frequency:   YDIPLEN    3 -0.058400
@ B operator, symmetry, frequency:   YDIPLEN    3  0.058400
@ C operator, symmetry, frequency:   XDIPLEN    2 -0.058400
@ D operator, symmetry, frequency:   XDIPLEN    2  0.058400

@ << A; B, C, D >>  =      -16534.41513548



   Contribution                Term         Accumulated
 ------------------------------------------------------
 Na T[4] Nb Nc Nd    -4089.16831068      -4089.16831068
 Na T[3] Nx Nyz       -209.39721161      -4298.56552229
 Na X[3] Ny Nz        7686.59229939       3388.02677709
 Nx A[3] Ny Nz        2723.23610413       6111.26288122
 Na X[2] Nyz        -11269.49479201      -5158.23191079
 Nx A[2] Nyz        -16259.36270561     -21417.59461640

@ Cubic response function value in a.u. for
@ A operator, symmetry, frequency:   YDIPLEN    3 -0.058400
@ B operator, symmetry, frequency:   XDIPLEN    2  0.058400
@ C operator, symmetry, frequency:   YDIPLEN    3 -0.058400
@ D operator, symmetry, frequency:   XDIPLEN    2  0.058400

@ << A; B, C, D >>  =      -21417.59461640



   Contribution                Term         Accumulated
 ------------------------------------------------------
 Na T[4] Nb Nc Nd    11190.79192099      11190.79192099
 Na T[3] Nx Nyz    -126027.81908956    -114837.02716858
 Na X[3] Ny Nz      -17264.26795434    -132101.29512292
 Nx A[3] Ny Nz        2011.34671313    -130089.94840979
 Na X[2] Nyz        -52891.55211587    -182981.50052566
 Nx A[2] Nyz         10025.45524528    -172956.04528038

@ Cubic response function value in a.u. for
@ A operator, symmetry, frequency:   ZDIPLEN    1 -0.058400
@ B operator, symmetry, frequency:   YDIPLEN    3  0.058400
@ C operator, symmetry, frequency:   ZDIPLEN    1 -0.058400
@ D operator, symmetry, frequency:   YDIPLEN    3  0.058400

@ << A; B, C, D >>  =     -172956.04528038



   Contribution                Term         Accumulated
 ------------------------------------------------------
 Na T[4] Nb Nc Nd    -1170.52885248      -1170.52885248
 Na T[3] Nx Nyz        -15.99907414      -1186.52792662
 Na X[3] Ny Nz        1895.00345330        708.47552668
 Nx A[3] Ny Nz         470.62914677       1179.10467344
 Na X[2] Nyz        -12062.93455200     -10883.82987855
 Nx A[2] Nyz        -10548.04177521     -21431.87165376

@ Cubic response function value in a.u. for
@ A operator, symmetry, frequency:   XDIPLEN    2 -0.058400
@ B operator, symmetry, frequency:   YDIPLEN    3  0.058400
@ C operator, symmetry, frequency:   XDIPLEN    2 -0.058400
@ D operator, symmetry, frequency:   YDIPLEN    3  0.058400

@ << A; B, C, D >>  =      -21431.87165376



   Contribution                Term         Accumulated
 ------------------------------------------------------
 Na T[4] Nb Nc Nd     -730.73205556       -730.73205556
 Na T[3] Nx Nyz       3372.69812901       2641.96607345
 Na X[3] Ny Nz        2244.00084818       4885.96692163
 Nx A[3] Ny Nz         748.00028273       5633.96720436
 Na X[2] Nyz        -14190.99949762      -8557.03229326
 Nx A[2] Nyz        -14252.57612603     -22809.60841928

@ Cubic response function value in a.u. for
@ A operator, symmetry, frequency:   YDIPLEN    3 -0.058400
@ B operator, symmetry, frequency:   YDIPLEN    3  0.058400
@ C operator, symmetry, frequency:   YDIPLEN    3 -0.058400
@ D operator, symmetry, frequency:   YDIPLEN    3  0.058400

@ << A; B, C, D >>  =      -22809.60841928



  Summary of gamma values for a set of frequencies
 -------------------------------------------------

@ B-freq:  0.058400
@ C-freq: -0.058400
@ D-freq:  0.058400

@ gamma(X;X,X,X)      18974.3562
@ gamma(X;X,Y,Y)      16534.4151
@ gamma(X;Y,Y,X)      16534.4151
@ gamma(X;Y,X,Y)      21431.8717
@ gamma(X;X,Z,Z)   -2805326.0207
@ gamma(X;Z,Z,X)   -2805326.0207
@ gamma(X;Z,X,Z)     796413.3418
@ gamma(Y;Y,X,X)      16534.4151
@ gamma(Y;X,X,Y)      16534.4151
@ gamma(Y;X,Y,X)      21417.5946
@ gamma(Y;Y,Y,Y)      22809.6084
@ gamma(Y;Y,Z,Z)      78716.7214
@ gamma(Y;Z,Z,Y)      78716.7214
@ gamma(Y;Z,Y,Z)     172127.5781
@ gamma(Z;Z,X,X)   -2805326.0207
@ gamma(Z;X,X,Z)   -2805326.0207
@ gamma(Z;X,Z,X)     799829.1210
@ gamma(Z;Z,Y,Y)      78716.7214
@ gamma(Z;Y,Y,Z)      78716.7214
@ gamma(Z;Y,Z,Y)     172956.0453
@ gamma(Z;Z,Z,Z)  -60841667.9479

@ Averaged gamma parallel to the applied field is -12750385.062257

  Total CPU  time used in RESPONSE:   7 hours 46 minutes  6 seconds
  Total wall time used in RESPONSE:   7 hours 46 minutes 19 seconds


                   .-------------------------------------------.
                   | End of Dynamic Property Section (RESPONS) |
                   `-------------------------------------------'

  Total CPU  time used in DALTON:  10 hours 10 minutes 52 seconds
  Total wall time used in DALTON:  10 hours 11 minutes 12 seconds

 
     Date and time (Linux)  : Mon Mar  2 03:54:53 2020
     Host name              : Lab2-333-NPs                            
