

     ************************************************************************
     *************** Dalton - An Electronic Structure Program ***************
     ************************************************************************

    This is output from DALTON release Dalton2018.1 (2019)
         ( Web site: http://daltonprogram.org )

   ----------------------------------------------------------------------------

    NOTE:
     
    Dalton is an experimental code for the evaluation of molecular
    properties using (MC)SCF, DFT, CI, and CC wave functions.
    The authors accept no responsibility for the performance of
    the code or for the correctness of the results.
     
    The code (in whole or part) is provided under a licence and
    is not to be reproduced for further distribution without
    the written permission of the authors or their representatives.
     
    See the home page "http://daltonprogram.org" for further information.
     
    If results obtained with this code are published,
    the appropriate citations would be both of:
     
       K. Aidas, C. Angeli, K. L. Bak, V. Bakken, R. Bast,
       L. Boman, O. Christiansen, R. Cimiraglia, S. Coriani,
       P. Dahle, E. K. Dalskov, U. Ekstroem,
       T. Enevoldsen, J. J. Eriksen, P. Ettenhuber, B. Fernandez,
       L. Ferrighi, H. Fliegl, L. Frediani, K. Hald, A. Halkier,
       C. Haettig, H. Heiberg, T. Helgaker, A. C. Hennum,
       H. Hettema, E. Hjertenaes, S. Hoest, I.-M. Hoeyvik,
       M. F. Iozzi, B. Jansik, H. J. Aa. Jensen, D. Jonsson,
       P. Joergensen, J. Kauczor, S. Kirpekar,
       T. Kjaergaard, W. Klopper, S. Knecht, R. Kobayashi, H. Koch,
       J. Kongsted, A. Krapp, K. Kristensen, A. Ligabue,
       O. B. Lutnaes, J. I. Melo, K. V. Mikkelsen, R. H. Myhre,
       C. Neiss, C. B. Nielsen, P. Norman, J. Olsen,
       J. M. H. Olsen, A. Osted, M. J. Packer, F. Pawlowski,
       T. B. Pedersen, P. F. Provasi, S. Reine, Z. Rinkevicius,
       T. A. Ruden, K. Ruud, V. Rybkin, P. Salek, C. C. M. Samson,
       A. Sanchez de Meras, T. Saue, S. P. A. Sauer,
       B. Schimmelpfennig, K. Sneskov, A. H. Steindal,
       K. O. Sylvester-Hvid, P. R. Taylor, A. M. Teale,
       E. I. Tellgren, D. P. Tew, A. J. Thorvaldsen, L. Thoegersen,
       O. Vahtras, M. A. Watson, D. J. D. Wilson, M. Ziolkowski
       and H. Agren,
       "The Dalton quantum chemistry program system",
       WIREs Comput. Mol. Sci. 2014, 4:269–284 (doi: 10.1002/wcms.1172)
     
    and
     
       Dalton, a molecular electronic structure program,
       Release Dalton2018.1 (2019), see http://daltonprogram.org
   ----------------------------------------------------------------------------

    Authors in alphabetical order (major contribution(s) in parenthesis):

  Kestutis Aidas,           Vilnius University,           Lithuania   (QM/MM)
  Celestino Angeli,         University of Ferrara,        Italy       (NEVPT2)
  Keld L. Bak,              UNI-C,                        Denmark     (AOSOPPA, non-adiabatic coupling, magnetic properties)
  Vebjoern Bakken,          University of Oslo,           Norway      (DALTON; geometry optimizer, symmetry detection)
  Radovan Bast,             UiT The Arctic U. of Norway,  Norway      (DALTON installation and execution frameworks)
  Pablo Baudin,             University of Valencia,       Spain       (Cholesky excitation energies)
  Linus Boman,              NTNU,                         Norway      (Cholesky decomposition and subsystems)
  Ove Christiansen,         Aarhus University,            Denmark     (CC module)
  Renzo Cimiraglia,         University of Ferrara,        Italy       (NEVPT2)
  Sonia Coriani,            Technical Univ. of Denmark,   Denmark     (CC module, MCD in RESPONS)
  Janusz Cukras,            University of Trieste,        Italy       (MChD in RESPONS)
  Paal Dahle,               University of Oslo,           Norway      (Parallelization)
  Erik K. Dalskov,          UNI-C,                        Denmark     (SOPPA)
  Thomas Enevoldsen,        Univ. of Southern Denmark,    Denmark     (SOPPA)
  Janus J. Eriksen,         Aarhus University,            Denmark     (Polarizable embedding model, TDA)
  Rasmus Faber,             University of Copenhagen,     Denmark     (Vib.avg. NMR with SOPPA, parallel AO-SOPPA)
  Tobias Fahleson,          KTH Stockholm,                Sweden      (Damped cubic response)
  Berta Fernandez,          U. of Santiago de Compostela, Spain       (doublet spin, ESR in RESPONS)
  Lara Ferrighi,            Aarhus University,            Denmark     (PCM Cubic response)
  Heike Fliegl,             University of Oslo,           Norway      (CCSD(R12))
  Luca Frediani,            UiT The Arctic U. of Norway,  Norway      (PCM)
  Bin Gao,                  UiT The Arctic U. of Norway,  Norway      (Gen1Int library)
  Christof Haettig,         Ruhr-University Bochum,       Germany     (CC module)
  Kasper Hald,              Aarhus University,            Denmark     (CC module)
  Asger Halkier,            Aarhus University,            Denmark     (CC module)
  Frederik Beyer Hansen,    University of Copenhagen,     Denmark     (Parallel AO-SOPPA)
  Erik D. Hedegaard,        Univ. of Southern Denmark,    Denmark     (Polarizable embedding model, QM/MM)
  Hanne Heiberg,            University of Oslo,           Norway      (geometry analysis, selected one-electron integrals)
  Trygve Helgaker,          University of Oslo,           Norway      (DALTON; ABACUS, ERI, DFT modules, London, and much more)
  Alf Christian Hennum,     University of Oslo,           Norway      (Parity violation)
  Hinne Hettema,            University of Auckland,       New Zealand (quadratic response in RESPONS; SIRIUS supersymmetry)
  Eirik Hjertenaes,         NTNU,                         Norway      (Cholesky decomposition)
  Pi A. B. Haase,           University of Copenhagen,     Denmark     (Triplet AO-SOPPA)
  Maria Francesca Iozzi,    University of Oslo,           Norway      (RPA)
  Christoph Jacob           TU Braunschweig               Germany     (Frozen density embedding model)
  Brano Jansik              Technical Univ. of Ostrava    Czech Rep.  (DFT cubic response)
  Hans Joergen Aa. Jensen,  Univ. of Southern Denmark,    Denmark     (DALTON; SIRIUS, RESPONS, ABACUS modules, London, and much more)
  Dan Jonsson,              UiT The Arctic U. of Norway,  Norway      (cubic response in RESPONS module)
  Poul Joergensen,          Aarhus University,            Denmark     (RESPONS, ABACUS, and CC modules)
  Maciej Kaminski,          University of Warsaw,         Poland      (CPPh in RESPONS)
  Joanna Kauczor,           Linkoeping University,        Sweden      (Complex polarization propagator (CPP) module)
  Sheela Kirpekar,          Univ. of Southern Denmark,    Denmark     (Mass-velocity & Darwin integrals)
  Wim Klopper,              KIT Karlsruhe,                Germany     (R12 code in CC, SIRIUS, and ABACUS modules)
  Stefan Knecht,            ETH Zurich,                   Switzerland (Parallel CI and MCSCF)
  Rika Kobayashi,           Australian National Univ.,    Australia   (DIIS in CC, London in MCSCF)
  Henrik Koch,              NTNU,                         Norway      (CC module, Cholesky decomposition)
  Jacob Kongsted,           Univ. of Southern Denmark,    Denmark     (Polarizable embedding model, QM/MM)
  Andrea Ligabue,           University of Modena,         Italy       (CTOCD, AOSOPPA)
  Nanna H. List             Univ. of Southern Denmark,    Denmark     (Polarizable embedding model)
  Ola B. Lutnaes,           University of Oslo,           Norway      (DFT Hessian)
  Juan I. Melo,             University of Buenos Aires,   Argentina   (LRESC, Relativistic Effects on NMR Shieldings)
  Kurt V. Mikkelsen,        University of Copenhagen,     Denmark     (MC-SCRF and QM/MM)
  Rolf H. Myhre,            NTNU,                         Norway      (Subsystems and CC3)
  Christian Neiss,          Univ. Erlangen-Nuernberg,     Germany     (CCSD(R12))
  Christian B. Nielsen,     University of Copenhagen,     Denmark     (QM/MM)
  Patrick Norman,           KTH Stockholm,                Sweden      (Cubic response and complex frequency response in RESPONS)
  Jeppe Olsen,              Aarhus University,            Denmark     (SIRIUS CI/density modules)
  Jogvan Magnus H. Olsen,   Univ. of Southern Denmark,    Denmark     (Polarizable embedding model, QM/MM)
  Anders Osted,             Copenhagen University,        Denmark     (QM/MM)
  Martin J. Packer,         University of Sheffield,      UK          (SOPPA)
  Filip Pawlowski,          Kazimierz Wielki University,  Poland      (CC3)
  Morten N. Pedersen,       Univ. of Southern Denmark,    Denmark     (Polarizable embedding model)
  Thomas B. Pedersen,       University of Oslo,           Norway      (Cholesky decomposition)
  Patricio F. Provasi,      University of Northeastern,   Argentina   (Analysis of coupling constants in localized orbitals)
  Zilvinas Rinkevicius,     KTH Stockholm,                Sweden      (open-shell DFT, ESR)
  Elias Rudberg,            KTH Stockholm,                Sweden      (DFT grid and basis info)
  Torgeir A. Ruden,         University of Oslo,           Norway      (Numerical derivatives in ABACUS)
  Kenneth Ruud,             UiT The Arctic U. of Norway,  Norway      (DALTON; ABACUS magnetic properties and much more)
  Pawel Salek,              KTH Stockholm,                Sweden      (DALTON; DFT code)
  Claire C. M. Samson       University of Karlsruhe       Germany     (Boys localization, r12 integrals in ERI)
  Alfredo Sanchez de Meras, University of Valencia,       Spain       (CC module, Cholesky decomposition)
  Trond Saue,               Paul Sabatier University,     France      (direct Fock matrix construction)
  Stephan P. A. Sauer,      University of Copenhagen,     Denmark     (SOPPA(CCSD), SOPPA prop., AOSOPPA, vibrational g-factors)
  Andre S. P. Gomes,        CNRS/Universite de Lille,     France      (Frozen density embedding model)
  Bernd Schimmelpfennig,    Forschungszentrum Karlsruhe,  Germany     (AMFI module)
  Kristian Sneskov,         Aarhus University,            Denmark     (Polarizable embedding model, QM/MM)
  Arnfinn H. Steindal,      UiT The Arctic U. of Norway,  Norway      (parallel QM/MM, Polarizable embedding model)
  Casper Steinmann,         Univ. of Southern Denmark,    Denmark     (QFIT, Polarizable embedding model)
  K. O. Sylvester-Hvid,     University of Copenhagen,     Denmark     (MC-SCRF)
  Peter R. Taylor,          VLSCI/Univ. of Melbourne,     Australia   (Symmetry handling ABACUS, integral transformation)
  Andrew M. Teale,          University of Nottingham,     England     (DFT-AC, DFT-D)
  David P. Tew,             University of Bristol,        England     (CCSD(R12))
  Olav Vahtras,             KTH Stockholm,                Sweden      (triplet response, spin-orbit, ESR, TDDFT, open-shell DFT)
  Lucas Visscher,           Vrije Universiteit Amsterdam, Netherlands (Frozen density embedding model)
  David J. Wilson,          La Trobe University,          Australia   (DFT Hessian and DFT magnetizabilities)
  Hans Agren,               KTH Stockholm,                Sweden      (SIRIUS module, RESPONS, MC-SCRF solvation model)
 --------------------------------------------------------------------------------

     Date and time (Linux)  : Sat Feb 22 12:24:23 2020
     Host name              : Lab2-333-NPs                            

 * Work memory size             :  1024000000 =  7.629 gigabytes.

 * Directories for basis set searches:
   1) /home/lab333/dalton/build_2018_atlas
   2) /home/lab333/dalton/build_2018_atlas/basis


Compilation information
-----------------------

 Who compiled             | lab333
 Host                     | Lab2-333-NPs
 System                   | Linux-4.4.0-43-Microsoft
 CMake generator          | Unix Makefiles
 Processor                | x86_64
 64-bit integers          | OFF
 MPI                      | OFF
 Fortran compiler         | /usr/bin/gfortran
 Fortran compiler version | GNU Fortran (Ubuntu 7.3.0-27ubuntu1~18.04) 7.3.0
 C compiler               | /usr/bin/gcc
 C compiler version       | gcc (Ubuntu 7.3.0-27ubuntu1~18.04) 7.3.0
 C++ compiler             | /usr/bin/g++
 C++ compiler version     | g++ (Ubuntu 7.3.0-27ubuntu1~18.04) 7.3.0
 BLAS                     | /usr/lib/x86_64-linux-gnu/libf77blas.so;/usr/lib/x
                          | 86_64-linux-gnu/libcblas.so;/usr/lib/x86_64-linux-
                          | gnu/libatlas.so
 LAPACK                   | /usr/lib/x86_64-linux-gnu/libatlas.so;/usr/lib/x86
                          | _64-linux-gnu/atlas/liblapack.so
 Static linking           | OFF
 Last Git revision        | da625bf48c74028e805616daee31bc5d76b3a20d
 Git branch               | (HEAD detached at Dalton2018.1)
 Configuration time       | 2019-01-18 10:20:51.437510


   Content of the .dal input file
 ----------------------------------

**DALTON INPUT
.RUN RESPONSE
.DIRECT
**WAVE FUNCTIONS
.HF
.MP2
.MCSCF
*CONFIGURATION INPUT
.SPIN MULTIPLICITY
1
.SYMMETRY
1
.INACTIVE ORBITALS
15 10 2 0
.CAS SPACE
1 1 2 3
.ELECTRONS
10
*ORBITAL INPUT
.MOSTART
.HUCKEL
*OPTIMIZATION
.DETERMINANTS
.STATE
1
*CI VECTOR
.PLUS COMBINATIONS
**RESPONSE
*CUBIC
.DIPLEN
.BFREQ
1
0.0584
.CFREQ
1
-0.0584
.DFREQ
1
0.0584
**END OF DALTON INPUT


   Content of the .mol file
 ----------------------------

BASIS
aug-cc-pCVDZ
 nitrobenzene
 Generated by the Dalton Input File Plugin for Avogadro
Atomtypes=4 Angstrom Generators=2 X Y
Charge=6.0 Atoms=4
C        0.0000000000            0.0000000000           -0.0265759623
C       -1.2190534920            0.0000000000           -0.6979856948
C       -1.2105095870            0.0000000000           -2.0897394457
C        0.0000000000            0.0000000000           -2.7841484631
Charge=7.0 Atoms=1
N        0.0000000000            0.0000000000            1.4215958362666665
Charge=8.0 Atoms=1
O       1.0847503743            0.0            1.9902446464666668
Charge=1.0 Atoms=3
H       -2.1410602955            0.0000000000           -0.1327964319
H       -2.1492827751            0.0000000000           -2.6311811056
H        0.0000000000            0.0000000000           -3.8683953478


       *******************************************************************
       *********** Output from DALTON general input processing ***********
       *******************************************************************

 --------------------------------------------------------------------------------
   Overall default print level:    0
   Print level for DALTON.STAT:    1

    AO-direct calculation (in sections where implemented)
    HERMIT 1- and 2-electron integral sections will be executed
    "Old" integral transformation used (limited to max 255 basis functions)
    Wave function sections will be executed (SIRIUS module)
    Dynamic molecular response properties section will be executed (RESPONSE module)
 --------------------------------------------------------------------------------


   ****************************************************************************
   *************** Output of molecule and basis set information ***************
   ****************************************************************************


    The two title cards from your ".mol" input:
    ------------------------------------------------------------------------
 1:  nitrobenzene                                                           
 2:  Generated by the Dalton Input File Plugin for Avogadro                 
    ------------------------------------------------------------------------

  Coordinates are entered in Angstrom and converted to atomic units.
          - Conversion factor : 1 bohr = 0.52917721 A

  Atomic type no.    1
  --------------------
  Nuclear charge:   6.00000
  Number of symmetry independent centers:    4
  Number of basis sets to read;    2
  Basis set file used for this atomic type with Z =   6 :
     "/home/lab333/dalton/build_2018_atlas/basis/aug-cc-pCVDZ"

  Atomic type no.    2
  --------------------
  Nuclear charge:   7.00000
  Number of symmetry independent centers:    1
  Number of basis sets to read;    2
  Basis set file used for this atomic type with Z =   7 :
     "/home/lab333/dalton/build_2018_atlas/basis/aug-cc-pCVDZ"

  Atomic type no.    3
  --------------------
  Nuclear charge:   8.00000
  Number of symmetry independent centers:    1
  Number of basis sets to read;    2
  Basis set file used for this atomic type with Z =   8 :
     "/home/lab333/dalton/build_2018_atlas/basis/aug-cc-pCVDZ"

  Atomic type no.    4
  --------------------
  Nuclear charge:   1.00000
  Number of symmetry independent centers:    3
  Number of basis sets to read;    2
  Basis set file used for this atomic type with Z =   1 :
     "/home/lab333/dalton/build_2018_atlas/basis/aug-cc-pCVDZ"


                         SYMGRP: Point group information
                         -------------------------------

@    Point group: C2v

@  * The irrep name for each symmetry:    1: A1     2: B1     3: B2     4: A2 

   * The point group was generated by:

      Reflection in the yz-plane
      Reflection in the xz-plane

   * Group multiplication table

        |  E   C2z  Oxz  Oyz
   -----+--------------------
     E  |  E   C2z  Oxz  Oyz
    C2z | C2z   E   Oyz  Oxz
    Oxz | Oxz  Oyz   E   C2z
    Oyz | Oyz  Oxz  C2z   E 

   * Character table

        |  E   C2z  Oxz  Oyz
   -----+--------------------
    A1  |   1    1    1    1
    B1  |   1   -1    1   -1
    B2  |   1   -1   -1    1
    A2  |   1    1   -1   -1

   * Direct product table

        | A1   B1   B2   A2 
   -----+--------------------
    A1  | A1   B1   B2   A2 
    B1  | B1   A1   A2   B2 
    B2  | B2   A2   A1   B1 
    A2  | A2   B2   B1   A1 


                                 Isotopic Masses
                                 ---------------

                           C          12.000000
                           C   _1     12.000000
                           C   _2     12.000000
                           C   _1     12.000000
                           C   _2     12.000000
                           C          12.000000
                           N          14.003074
                           O   _1     15.994915
                           O   _2     15.994915
                           H   _1      1.007825
                           H   _2      1.007825
                           H   _1      1.007825
                           H   _2      1.007825
                           H           1.007825

                       Total mass:   123.032029 amu
                       Natural abundance:  92.716 %

 Center-of-mass coordinates (a.u.):    0.000000    0.000000   -0.407486


  Atoms and basis sets
  --------------------

  Number of atom types :    4
  Total number of atoms:   14

  Basis set used is "aug-cc-pCVDZ" from the basis set library.

  label    atoms   charge   prim   cont     basis
  ----------------------------------------------------------------------
  C           6    6.0000    39    27      [11s6p2d|5s4p2d]                                   
  N           1    7.0000    39    27      [11s6p2d|5s4p2d]                                   
  O           2    8.0000    39    27      [11s6p2d|5s4p2d]                                   
  H           5    1.0000    11     9      [5s2p|3s2p]                                        
  ----------------------------------------------------------------------
  total:     14   64.0000   406   288
  ----------------------------------------------------------------------
  Spherical harmonic basis used.

  Threshold for neglecting AO integrals:  1.00D-12


  Symmetry Coordinates
  --------------------

  Number of coordinates in each symmetry:    14   14    9    5


   Interatomic separations (in Angstrom):
   --------------------------------------

            C           C   _1      C   _2      C   _1      C   _2      C     
            ------      ------      ------      ------      ------      ------
 C     :    0.000000
 C   _1:    1.391719    0.000000
 C   _2:    1.391719    2.438107    0.000000
 C   _1:    2.392065    1.391780    2.799956    0.000000
 C   _2:    2.392065    2.799956    1.391780    2.421019    0.000000
 C     :    2.757573    2.416230    2.416230    1.395542    1.395542    0.000000
 N     :    1.448172    2.445142    2.445142    3.714136    3.714136    4.205744
 O   _1:    2.290032    3.540352    2.691583    4.681291    4.081922    4.896071
 O   _2:    2.290032    2.691583    3.540352    4.081922    4.681291    4.896071
 H   _1:    2.143694    1.081451    3.407316    2.166922    3.881063    3.407904
 H   _2:    2.143694    3.407316    1.081451    3.881063    2.166922    3.407904
 H   _1:    3.376890    2.145360    3.883675    1.083722    3.403140    2.154719
 H   _2:    3.376890    3.883675    2.145360    3.403140    1.083722    2.154719
 H     :    3.841819    3.396703    3.396703    2.151500    2.151500    1.084247

            N           O   _1      O   _2      H   _1      H   _2      H   _1
            ------      ------      ------      ------      ------      ------
 N     :    0.000000
 O   _1:    1.224763    0.000000
 O   _2:    1.224763    2.169501    0.000000
 H   _1:    2.645803    3.861756    2.371306    0.000000
 H   _2:    2.645803    2.371306    3.861756    4.282121    0.000000
 H   _1:    4.587419    5.640616    4.742447    2.498398    4.964773    0.000000
 H   _2:    4.587419    4.742447    5.640616    4.964773    2.498398    4.298566
 H     :    5.289991    5.958217    5.958217    4.305675    4.305675    2.479943

            H   _2      H     
            ------      ------
 H   _2:    0.000000
 H     :    2.479943    0.000000


  Max    interatomic separation is    5.9582 Angstrom (   11.2594 Bohr)
  between atoms   14 and    8, "H     " and "O   _1".

  Min HX interatomic separation is    1.0815 Angstrom (    2.0436 Bohr)

  Min YX interatomic separation is    1.2248 Angstrom (    2.3145 Bohr)


  Bond distances (Angstrom):
  --------------------------

                  atom 1     atom 2       distance
                  ------     ------       --------
  bond distance:  C   _1     C            1.391719
  bond distance:  C   _2     C            1.391719
  bond distance:  C   _1     C   _1       1.391780
  bond distance:  C   _2     C   _2       1.391780
  bond distance:  C          C   _1       1.395542
  bond distance:  C          C   _2       1.395542
  bond distance:  N          C            1.448172
  bond distance:  O   _1     N            1.224763
  bond distance:  O   _2     N            1.224763
  bond distance:  H   _1     C   _1       1.081451
  bond distance:  H   _2     C   _2       1.081451
  bond distance:  H   _1     C   _1       1.083722
  bond distance:  H   _2     C   _2       1.083722
  bond distance:  H          C            1.084247


  Bond angles (degrees):
  ----------------------

                  atom 1     atom 2     atom 3         angle
                  ------     ------     ------         -----
  bond angle:     C   _1     C          C   _2       122.311
  bond angle:     C   _1     C          N            118.844
  bond angle:     C   _2     C          N            118.844
  bond angle:     C          C   _1     C   _1       118.493
  bond angle:     C          C   _1     H   _1       119.647
  bond angle:     C   _1     C   _1     H   _1       121.860
  bond angle:     C          C   _2     C   _2       118.493
  bond angle:     C          C   _2     H   _2       119.647
  bond angle:     C   _2     C   _2     H   _2       121.860
  bond angle:     C   _1     C   _1     C            120.192
  bond angle:     C   _1     C   _1     H   _1       119.623
  bond angle:     C          C   _1     H   _1       120.185
  bond angle:     C   _2     C   _2     C            120.192
  bond angle:     C   _2     C   _2     H   _2       119.623
  bond angle:     C          C   _2     H   _2       120.185
  bond angle:     C   _1     C          C   _2       120.319
  bond angle:     C   _1     C          H            119.841
  bond angle:     C   _2     C          H            119.841
  bond angle:     C          N          O   _1       117.664
  bond angle:     C          N          O   _2       117.664
  bond angle:     O   _1     N          O   _2       124.671




 Principal moments of inertia (u*A**2) and principal axes
 --------------------------------------------------------

   IA     127.027245          0.000000    0.000000    1.000000
   IB     387.891368          1.000000    0.000000    0.000000
   IC     514.918613          0.000000    1.000000    0.000000


 Rotational constants
 --------------------

@    The molecule is planar.

               A                   B                   C

           3978.5088           1302.8880            981.4736 MHz
            0.132709            0.043460            0.032738 cm-1


@  Nuclear repulsion energy :  413.803377248499 Hartree


  Symmetry Orbitals
  -----------------

  Number of orbitals in each symmetry:         115   91   48   34


  Symmetry  A1 ( 1)

    1     C        1s         1
    2     C        1s         2
    3     C        1s         3
    4     C        1s         4
    5     C        1s         5
    6     C        2pz        8
    7     C        2pz       11
    8     C        2pz       14
    9     C        2pz       17
   10     C        3d0       20
   11     C        3d2+      22
   12     C        3d0       25
   13     C        3d2+      27
   14     C        1s        28 +   29
   15     C        1s        30 +   31
   16     C        1s        32 +   33
   17     C        1s        34 +   35
   18     C        1s        36 +   37
   19     C        2px       38 -   39
   20     C        2pz       42 +   43
   21     C        2px       44 -   45
   22     C        2pz       48 +   49
   23     C        2px       50 -   51
   24     C        2pz       54 +   55
   25     C        2px       56 -   57
   26     C        2pz       60 +   61
   27     C        3d0       66 +   67
   28     C        3d1+      68 -   69
   29     C        3d2+      70 +   71
   30     C        3d0       76 +   77
   31     C        3d1+      78 -   79
   32     C        3d2+      80 +   81
   33     C        1s        82 +   83
   34     C        1s        84 +   85
   35     C        1s        86 +   87
   36     C        1s        88 +   89
   37     C        1s        90 +   91
   38     C        2px       92 -   93
   39     C        2pz       96 +   97
   40     C        2px       98 -   99
   41     C        2pz      102 +  103
   42     C        2px      104 -  105
   43     C        2pz      108 +  109
   44     C        2px      110 -  111
   45     C        2pz      114 +  115
   46     C        3d0      120 +  121
   47     C        3d1+     122 -  123
   48     C        3d2+     124 +  125
   49     C        3d0      130 +  131
   50     C        3d1+     132 -  133
   51     C        3d2+     134 +  135
   52     C        1s       136
   53     C        1s       137
   54     C        1s       138
   55     C        1s       139
   56     C        1s       140
   57     C        2pz      143
   58     C        2pz      146
   59     C        2pz      149
   60     C        2pz      152
   61     C        3d0      155
   62     C        3d2+     157
   63     C        3d0      160
   64     C        3d2+     162
   65     N        1s       163
   66     N        1s       164
   67     N        1s       165
   68     N        1s       166
   69     N        1s       167
   70     N        2pz      170
   71     N        2pz      173
   72     N        2pz      176
   73     N        2pz      179
   74     N        3d0      182
   75     N        3d2+     184
   76     N        3d0      187
   77     N        3d2+     189
   78     O        1s       190 +  191
   79     O        1s       192 +  193
   80     O        1s       194 +  195
   81     O        1s       196 +  197
   82     O        1s       198 +  199
   83     O        2px      200 -  201
   84     O        2pz      204 +  205
   85     O        2px      206 -  207
   86     O        2pz      210 +  211
   87     O        2px      212 -  213
   88     O        2pz      216 +  217
   89     O        2px      218 -  219
   90     O        2pz      222 +  223
   91     O        3d0      228 +  229
   92     O        3d1+     230 -  231
   93     O        3d2+     232 +  233
   94     O        3d0      238 +  239
   95     O        3d1+     240 -  241
   96     O        3d2+     242 +  243
   97     H        1s       244 +  245
   98     H        1s       246 +  247
   99     H        1s       248 +  249
  100     H        2px      250 -  251
  101     H        2pz      254 +  255
  102     H        2px      256 -  257
  103     H        2pz      260 +  261
  104     H        1s       262 +  263
  105     H        1s       264 +  265
  106     H        1s       266 +  267
  107     H        2px      268 -  269
  108     H        2pz      272 +  273
  109     H        2px      274 -  275
  110     H        2pz      278 +  279
  111     H        1s       280
  112     H        1s       281
  113     H        1s       282
  114     H        2pz      285
  115     H        2pz      288


  Symmetry  B1 ( 2)

  116     C        2px        6
  117     C        2px        9
  118     C        2px       12
  119     C        2px       15
  120     C        3d1+      21
  121     C        3d1+      26
  122     C        1s        28 -   29
  123     C        1s        30 -   31
  124     C        1s        32 -   33
  125     C        1s        34 -   35
  126     C        1s        36 -   37
  127     C        2px       38 +   39
  128     C        2pz       42 -   43
  129     C        2px       44 +   45
  130     C        2pz       48 -   49
  131     C        2px       50 +   51
  132     C        2pz       54 -   55
  133     C        2px       56 +   57
  134     C        2pz       60 -   61
  135     C        3d0       66 -   67
  136     C        3d1+      68 +   69
  137     C        3d2+      70 -   71
  138     C        3d0       76 -   77
  139     C        3d1+      78 +   79
  140     C        3d2+      80 -   81
  141     C        1s        82 -   83
  142     C        1s        84 -   85
  143     C        1s        86 -   87
  144     C        1s        88 -   89
  145     C        1s        90 -   91
  146     C        2px       92 +   93
  147     C        2pz       96 -   97
  148     C        2px       98 +   99
  149     C        2pz      102 -  103
  150     C        2px      104 +  105
  151     C        2pz      108 -  109
  152     C        2px      110 +  111
  153     C        2pz      114 -  115
  154     C        3d0      120 -  121
  155     C        3d1+     122 +  123
  156     C        3d2+     124 -  125
  157     C        3d0      130 -  131
  158     C        3d1+     132 +  133
  159     C        3d2+     134 -  135
  160     C        2px      141
  161     C        2px      144
  162     C        2px      147
  163     C        2px      150
  164     C        3d1+     156
  165     C        3d1+     161
  166     N        2px      168
  167     N        2px      171
  168     N        2px      174
  169     N        2px      177
  170     N        3d1+     183
  171     N        3d1+     188
  172     O        1s       190 -  191
  173     O        1s       192 -  193
  174     O        1s       194 -  195
  175     O        1s       196 -  197
  176     O        1s       198 -  199
  177     O        2px      200 +  201
  178     O        2pz      204 -  205
  179     O        2px      206 +  207
  180     O        2pz      210 -  211
  181     O        2px      212 +  213
  182     O        2pz      216 -  217
  183     O        2px      218 +  219
  184     O        2pz      222 -  223
  185     O        3d0      228 -  229
  186     O        3d1+     230 +  231
  187     O        3d2+     232 -  233
  188     O        3d0      238 -  239
  189     O        3d1+     240 +  241
  190     O        3d2+     242 -  243
  191     H        1s       244 -  245
  192     H        1s       246 -  247
  193     H        1s       248 -  249
  194     H        2px      250 +  251
  195     H        2pz      254 -  255
  196     H        2px      256 +  257
  197     H        2pz      260 -  261
  198     H        1s       262 -  263
  199     H        1s       264 -  265
  200     H        1s       266 -  267
  201     H        2px      268 +  269
  202     H        2pz      272 -  273
  203     H        2px      274 +  275
  204     H        2pz      278 -  279
  205     H        2px      283
  206     H        2px      286


  Symmetry  B2 ( 3)

  207     C        2py        7
  208     C        2py       10
  209     C        2py       13
  210     C        2py       16
  211     C        3d1-      19
  212     C        3d1-      24
  213     C        2py       40 +   41
  214     C        2py       46 +   47
  215     C        2py       52 +   53
  216     C        2py       58 +   59
  217     C        3d2-      62 -   63
  218     C        3d1-      64 +   65
  219     C        3d2-      72 -   73
  220     C        3d1-      74 +   75
  221     C        2py       94 +   95
  222     C        2py      100 +  101
  223     C        2py      106 +  107
  224     C        2py      112 +  113
  225     C        3d2-     116 -  117
  226     C        3d1-     118 +  119
  227     C        3d2-     126 -  127
  228     C        3d1-     128 +  129
  229     C        2py      142
  230     C        2py      145
  231     C        2py      148
  232     C        2py      151
  233     C        3d1-     154
  234     C        3d1-     159
  235     N        2py      169
  236     N        2py      172
  237     N        2py      175
  238     N        2py      178
  239     N        3d1-     181
  240     N        3d1-     186
  241     O        2py      202 +  203
  242     O        2py      208 +  209
  243     O        2py      214 +  215
  244     O        2py      220 +  221
  245     O        3d2-     224 -  225
  246     O        3d1-     226 +  227
  247     O        3d2-     234 -  235
  248     O        3d1-     236 +  237
  249     H        2py      252 +  253
  250     H        2py      258 +  259
  251     H        2py      270 +  271
  252     H        2py      276 +  277
  253     H        2py      284
  254     H        2py      287


  Symmetry  A2 ( 4)

  255     C        3d2-      18
  256     C        3d2-      23
  257     C        2py       40 -   41
  258     C        2py       46 -   47
  259     C        2py       52 -   53
  260     C        2py       58 -   59
  261     C        3d2-      62 +   63
  262     C        3d1-      64 -   65
  263     C        3d2-      72 +   73
  264     C        3d1-      74 -   75
  265     C        2py       94 -   95
  266     C        2py      100 -  101
  267     C        2py      106 -  107
  268     C        2py      112 -  113
  269     C        3d2-     116 +  117
  270     C        3d1-     118 -  119
  271     C        3d2-     126 +  127
  272     C        3d1-     128 -  129
  273     C        3d2-     153
  274     C        3d2-     158
  275     N        3d2-     180
  276     N        3d2-     185
  277     O        2py      202 -  203
  278     O        2py      208 -  209
  279     O        2py      214 -  215
  280     O        2py      220 -  221
  281     O        3d2-     224 +  225
  282     O        3d1-     226 -  227
  283     O        3d2-     234 +  235
  284     O        3d1-     236 -  237
  285     H        2py      252 -  253
  286     H        2py      258 -  259
  287     H        2py      270 -  271
  288     H        2py      276 -  277

  Symmetries of electric field:  B1 (2)  B2 (3)  A1 (1)

  Symmetries of magnetic field:  B2 (3)  B1 (2)  A2 (4)


                     .---------------------------------------.
                     | Starting in Integral Section (HERMIT) |
                     `---------------------------------------'



 ***************************************************************************************
 ****************** Output from **INTEGRALS input processing (HERMIT) ******************
 ***************************************************************************************


 - Using defaults, no **INTEGRALS input found

 Default print level:        1

 Calculation of one-electron Hamiltonian integrals.

 Center of mass  (bohr):      0.000000000000      0.000000000000     -0.407485904113
 Operator center (bohr):      0.000000000000      0.000000000000      0.000000000000
 Gauge origin    (bohr):      0.000000000000      0.000000000000      0.000000000000
 Dipole origin   (bohr):      0.000000000000      0.000000000000      0.000000000000


     ************************************************************************
     ************************** Output from HERINT **************************
     ************************************************************************



                      Nuclear contribution to dipole moments
                      --------------------------------------

                 au               Debye          C m (/(10**-30)

      z    -33.86070507       -86.06532208      -287.08301289


  Time used in GABGEN     is       0.12 seconds
  Total CPU  time used in HERMIT:   0.45 seconds
  Total wall time used in HERMIT:   0.45 seconds


                        .----------------------------------.
                        | End of Integral Section (HERMIT) |
                        `----------------------------------'



                   .--------------------------------------------.
                   | Starting in Wave Function Section (SIRIUS) |
                   `--------------------------------------------'


 *** Output from Huckel module :

     Using EWMO model:          F
     Using EHT  model:          T
     Number of Huckel orbitals each symmetry:   24   17    6    3

 Huckel EHT eigenvalues for symmetry :  1
          -20.695947     -15.707500     -11.415361     -11.395076     -11.377075
          -11.362728      -1.757346      -1.554846      -1.196096      -0.941931
           -0.816042      -0.782426      -0.641413      -0.588760      -0.492988
           -0.428362      -0.327409      -0.244038      -0.223927      -0.213581
           -0.205628      -0.178287      -0.166210      -0.160259

 Huckel EHT eigenvalues for symmetry :  2
          -20.700675     -11.396488     -11.377866      -1.403534      -1.201909
           -0.879655      -0.646195      -0.570338      -0.525962      -0.478338
           -0.414769      -0.271262      -0.213041      -0.202773      -0.176202
           -0.165328      -0.163127

 Huckel EHT eigenvalues for symmetry :  3
           -0.803118      -0.670449      -0.466269      -0.383393      -0.281098
           -0.236327

 Huckel EHT eigenvalues for symmetry :  4
           -0.592946      -0.460082      -0.288817

 **********************************************************************
 *SIRIUS* a direct, restricted step, second order MCSCF program       *
 **********************************************************************

 
     Date and time (Linux)  : Sat Feb 22 12:24:24 2020
     Host name              : Lab2-333-NPs                            

 Title lines from ".mol" input file:
      nitrobenzene                                                           
      Generated by the Dalton Input File Plugin for Avogadro                 

 Print level on unit LUPRI =   2 is   0
 Print level on unit LUW4  =   2 is   5

@    MC-SCF optimization.

@    Multi-configurational response calculation.
@              Type: complete active space calculation (CAS).

@    This is a combination run starting with
@              a restricted, closed shell Hartree-Fock calculation
@              an MP2 calculation

 Fock matrices are calculated directly without use of integrals on disk.

 Initial molecular orbitals are obtained according to
 ".MOSTART EHT   " input option

     Wave function specification
     ============================
@    Wave function type        --- MC-SCF ---
@    Number of closed shell electrons          54
@    Number of electrons in active shells      10
@    Total charge of the molecule               0

@    Spin multiplicity and 2 M_S                1         0
@    Total number of symmetries                 4 (point group: C2v)
@    Reference state symmetry                   1 (irrep name : A1 )

     Orbital specifications
     ======================
@    Abelian symmetry species          All |    1    2    3    4
@                                          |  A1   B1   B2   A2 
                                       --- |  ---  ---  ---  ---
@    Inactive orbitals                  27 |   15   10    2    0
@    Active orbitals                     7 |    1    1    2    3
@    Secondary orbitals                254 |   99   80   44   31
@    Total number of orbitals          288 |  115   91   48   34
@    Number of basis functions         288 |  115   91   48   34

      ** Automatic occupation of RHF orbitals **

      -- Initial occupation of symmetries is determined from extended Huckel guess.           
      -- Initial occupation of symmetries is :
@    Occupied SCF orbitals              32 |   16   11    3    2

     Optimization information
     ========================
@    Number of determinants                 115
@    Number of orbital rotations           2762
     ------------------------------------------
@    Total number of variables             2877

     Maximum number of macro iterations      25
     Maximum number of micro iterations     600
     Threshold for MCSCF gradient      1.00D-05
     Number of initial trial vectors          1
     Number of initial CI iterations          3
     Number of simultaneous trial vectors     1

@    This calculation converges to the lowest state for the specified symmetry and spin species.

     Maximum number of NEO/NR iterations  24

    INFORMATION: Switched to "new" integral transformation (from 1988 ;-) )
    because more than 255 basis functions.


 ***********************************************
 ***** DIIS acceleration of SCF iterations *****
 ***********************************************

 C1-DIIS algorithm; max error vectors =    8

 Automatic occupation of symmetries with  64 electrons.

 Iter     Total energy    Error norm  Delta(E)    SCF occupation
 -----------------------------------------------------------------------------
   1  Screening settings (-IFTHRS, JTDIIS, DIFDEN, times)   -8    1    T  2.78D+01  2.77D+01
@  1  -432.233689765       6.51D+00  -4.32D+02    16  11   3   2
      Virial theorem: -V/T =      1.998322
@    MULPOP   C       0.37; C   _1  0.25; C   _2  0.25; C   _1  0.23; C   _2  0.23; C       0.37; N       1.31; O   _1 -1.03; O   _2 -1.03; H   _1 -0.20; 
@             H   _2 -0.20; H   _1 -0.18; H   _2 -0.18; H      -0.19; 
   1  Level shift: doubly occupied orbital energies shifted by -2.00D-01
 -----------------------------------------------------------------------------
   2  Screening settings (-IFTHRS, JTDIIS, DIFDEN, times)   -8    2    T  2.78D+01  2.78D+01
@  2  -433.829027511       2.98D+00  -1.60D+00    16  11   3   2
      Virial theorem: -V/T =      2.001294
@    MULPOP   C       0.90; C   _1  0.35; C   _2  0.35; C   _1  0.33; C   _2  0.33; C       0.41; N       0.38; O   _1 -0.52; O   _2 -0.52; H   _1 -0.40; 
@             H   _2 -0.40; H   _1 -0.40; H   _2 -0.40; H      -0.40; 
   2  Level shift: doubly occupied orbital energies shifted by -1.00D-01
 -----------------------------------------------------------------------------
   3  Screening settings (-IFTHRS, JTDIIS, DIFDEN, times)   -8    3    T  2.77D+01  2.77D+01
@  3  -434.207849181       7.13D-01  -3.79D-01    16  11   3   2
      Virial theorem: -V/T =      2.000684
@    MULPOP   C       1.71; C   _1  0.22; C   _2  0.22; C   _1  0.45; C   _2  0.45; C       0.27; N       0.70; O   _1 -0.90; O   _2 -0.90; H   _1 -0.45; 
@             H   _2 -0.45; H   _1 -0.44; H   _2 -0.44; H      -0.44; 
   3  Level shift: doubly occupied orbital energies shifted by -2.50D-02
 -----------------------------------------------------------------------------
   4  Screening settings (-IFTHRS, JTDIIS, DIFDEN, times)   -8    4    T  2.76D+01  2.76D+01
@  4  -434.233219985       1.86D-01  -2.54D-02    16  11   3   2
      Virial theorem: -V/T =      2.002473
@    MULPOP   C       1.83; C   _1  0.17; C   _2  0.17; C   _1  0.51; C   _2  0.51; C       0.28; N       0.55; O   _1 -0.87; O   _2 -0.87; H   _1 -0.45; 
@             H   _2 -0.45; H   _1 -0.45; H   _2 -0.45; H      -0.46; 
   4  Level shift: doubly occupied orbital energies shifted by -1.25D-02
 -----------------------------------------------------------------------------
   5  Screening settings (-IFTHRS, JTDIIS, DIFDEN, times)  -10    5    F  2.80D+01  2.80D+01
@  5  -434.235888415       5.57D-02  -2.67D-03    16  11   3   2
      Virial theorem: -V/T =      2.001902
@    MULPOP   C       1.86; C   _1  0.15; C   _2  0.15; C   _1  0.50; C   _2  0.50; C       0.26; N       0.55; O   _1 -0.87; O   _2 -0.87; H   _1 -0.44; 
@             H   _2 -0.44; H   _1 -0.44; H   _2 -0.44; H      -0.44; 
 -----------------------------------------------------------------------------
   6  Screening settings (-IFTHRS, JTDIIS, DIFDEN, times)  -10    6    T  2.78D+01  2.78D+01
@  6  -434.236225801       1.56D-02  -3.37D-04    16  11   3   2
      Virial theorem: -V/T =      2.001819
@    MULPOP   C       1.87; C   _1  0.14; C   _2  0.14; C   _1  0.50; C   _2  0.50; C       0.26; N       0.53; O   _1 -0.87; O   _2 -0.87; H   _1 -0.44; 
@             H   _2 -0.44; H   _1 -0.44; H   _2 -0.44; H      -0.44; 
 -----------------------------------------------------------------------------
   7  Screening settings (-IFTHRS, JTDIIS, DIFDEN, times)  -13    7    F  2.82D+01  2.82D+01
@  7  -434.236259302       6.33D-03  -3.35D-05    16  11   3   2
      Virial theorem: -V/T =      2.001856
@    MULPOP   C       1.88; C   _1  0.14; C   _2  0.14; C   _1  0.50; C   _2  0.50; C       0.26; N       0.52; O   _1 -0.87; O   _2 -0.87; H   _1 -0.44; 
@             H   _2 -0.44; H   _1 -0.44; H   _2 -0.44; H      -0.44; 
 -----------------------------------------------------------------------------
   8  Screening settings (-IFTHRS, JTDIIS, DIFDEN, times)  -13    8    T  2.80D+01  2.81D+01
@  8  -434.236264558       2.12D-03  -5.26D-06    16  11   3   2
      Virial theorem: -V/T =      2.001844
@    MULPOP   C       1.88; C   _1  0.14; C   _2  0.14; C   _1  0.50; C   _2  0.50; C       0.26; N       0.52; O   _1 -0.87; O   _2 -0.87; H   _1 -0.44; 
@             H   _2 -0.44; H   _1 -0.44; H   _2 -0.44; H      -0.44; 
 -----------------------------------------------------------------------------
   9  Screening settings (-IFTHRS, JTDIIS, DIFDEN, times)  -13    9    T  2.82D+01  2.82D+01
@  9  -434.236265125       6.60D-04  -5.67D-07    16  11   3   2
      Virial theorem: -V/T =      2.001841
@    MULPOP   C       1.88; C   _1  0.14; C   _2  0.14; C   _1  0.50; C   _2  0.50; C       0.26; N       0.52; O   _1 -0.87; O   _2 -0.87; H   _1 -0.44; 
@             H   _2 -0.44; H   _1 -0.44; H   _2 -0.44; H      -0.44; 
 -----------------------------------------------------------------------------
  10  Screening settings (-IFTHRS, JTDIIS, DIFDEN, times)  -13   10    T  2.80D+01  2.80D+01
@ 10  -434.236265178       2.13D-04  -5.31D-08    16  11   3   2
      Virial theorem: -V/T =      2.001843
@    MULPOP   C       1.88; C   _1  0.14; C   _2  0.14; C   _1  0.50; C   _2  0.50; C       0.26; N       0.52; O   _1 -0.87; O   _2 -0.87; H   _1 -0.44; 
@             H   _2 -0.44; H   _1 -0.44; H   _2 -0.44; H      -0.44; 
 -----------------------------------------------------------------------------
  11  Screening settings (-IFTHRS, JTDIIS, DIFDEN, times)  -13   11    T  2.79D+01  2.79D+01
@ 11  -434.236265186       8.11D-05  -7.97D-09    16  11   3   2
      Virial theorem: -V/T =      2.001842
@    MULPOP   C       1.88; C   _1  0.14; C   _2  0.14; C   _1  0.50; C   _2  0.50; C       0.26; N       0.52; O   _1 -0.87; O   _2 -0.87; H   _1 -0.44; 
@             H   _2 -0.44; H   _1 -0.44; H   _2 -0.44; H      -0.44; 
 -----------------------------------------------------------------------------
  12  Screening settings (-IFTHRS, JTDIIS, DIFDEN, times)  -13   12    T  2.78D+01  2.79D+01
@ 12  -434.236265187       3.32D-05  -1.40D-09    16  11   3   2
      Virial theorem: -V/T =      2.001842
@    MULPOP   C       1.88; C   _1  0.14; C   _2  0.14; C   _1  0.50; C   _2  0.50; C       0.26; N       0.52; O   _1 -0.87; O   _2 -0.87; H   _1 -0.44; 
@             H   _2 -0.44; H   _1 -0.44; H   _2 -0.44; H      -0.44; 
 -----------------------------------------------------------------------------
  13  Screening settings (-IFTHRS, JTDIIS, DIFDEN, times)  -13   13    T  2.79D+01  2.79D+01
@ 13  -434.236265188       1.93D-05  -2.28D-10    16  11   3   2
      Virial theorem: -V/T =      2.001842
@    MULPOP   C       1.88; C   _1  0.14; C   _2  0.14; C   _1  0.50; C   _2  0.50; C       0.26; N       0.52; O   _1 -0.87; O   _2 -0.87; H   _1 -0.44; 
@             H   _2 -0.44; H   _1 -0.44; H   _2 -0.44; H      -0.44; 
 -----------------------------------------------------------------------------
  14  Screening settings (-IFTHRS, JTDIIS, DIFDEN, times)  -13   14    T  2.78D+01  2.78D+01
@ 14  -434.236265188       6.53D-06  -1.13D-10    16  11   3   2
      Virial theorem: -V/T =      2.001842
@    MULPOP   C       1.88; C   _1  0.14; C   _2  0.14; C   _1  0.50; C   _2  0.50; C       0.26; N       0.52; O   _1 -0.87; O   _2 -0.87; H   _1 -0.44; 
@             H   _2 -0.44; H   _1 -0.44; H   _2 -0.44; H      -0.44; 
 -----------------------------------------------------------------------------
  15  Screening settings (-IFTHRS, JTDIIS, DIFDEN, times)  -13   15    T  2.77D+01  2.77D+01
@ 15  -434.236265188       2.47D-06   2.16D-12    16  11   3   2
      Virial theorem: -V/T =      2.001842
@    MULPOP   C       1.88; C   _1  0.14; C   _2  0.14; C   _1  0.50; C   _2  0.50; C       0.26; N       0.52; O   _1 -0.87; O   _2 -0.87; H   _1 -0.44; 
@             H   _2 -0.44; H   _1 -0.44; H   _2 -0.44; H      -0.44; 
 -----------------------------------------------------------------------------
  16  Screening settings (-IFTHRS, JTDIIS, DIFDEN, times)  -13   16    T  2.76D+01  2.76D+01
@ 16  -434.236265188       1.14D-06  -1.03D-11    16  11   3   2
      Virial theorem: -V/T =      2.001842
@    MULPOP   C       1.88; C   _1  0.14; C   _2  0.14; C   _1  0.50; C   _2  0.50; C       0.26; N       0.52; O   _1 -0.87; O   _2 -0.87; H   _1 -0.44; 
@             H   _2 -0.44; H   _1 -0.44; H   _2 -0.44; H      -0.44; 
 -----------------------------------------------------------------------------
  17  Screening settings (-IFTHRS, JTDIIS, DIFDEN, times)  -13   17    T  2.77D+01  2.77D+01
@ 17  -434.236265188       4.97D-07  -9.09D-13    16  11   3   2

@ *** DIIS converged in  17 iterations !
@     Converged SCF energy, gradient:   -434.236265187698    4.97D-07
    - total time used in SIRFCK :              0.00 seconds

 --- Writing SIRIFC interface file

 CPU and wall time for SCF :     474.172     474.196


 ----- Output from SIRIUS MP2 module -----

 Reference: H.J.Aa.Jensen, P.Jorgensen, H.Agren, and J.Olsen,
            J. Chem. Phys. 88, 3834 (1988); 89, 5354 (1988)

 Checking that the closed shell orbitals are canonical Hartree-Fock orbitals

    Number of electrons  :   64
    Closed shell orbitals:   16   11    3    2

 Generating Fock matrix

 Hartree-Fock electronic energy:        -848.039642436202
 Hartree-Fock total      energy:        -434.236265187704

 Hartree-Fock orbital energies, symmetry 1 ( A1 ),   16 occupied SCF orbitals

       -20.61274557   -15.86119148   -11.31670698   -11.28430660   -11.28239295
       -11.27394761    -1.61342649    -1.20449524    -1.10133802    -0.96692055
        -0.83244469    -0.78484837    -0.71033812    -0.65219092    -0.55613432
        -0.49942572     0.02656989     0.04406010     0.06215653     0.10458159
         0.13116563     0.13478452     0.15078695     0.15666086     0.17312596
         0.18059915     0.21518802     0.25908867     0.28802474     0.30342918
         0.31167850     0.34012504     0.35136050     0.35985122     0.37144290
         0.39671056     0.41244944     0.43774231     0.46391119     0.48589283
         0.51624124     0.56050761     0.58241541     0.58631589     0.63122413
         0.65247588     0.65949954     0.67813927     0.72848409     0.73467172
         0.74302287     0.83804595     0.88458240     0.93104604     0.95936943
         0.96471076     1.00785475     1.05721115     1.08404705     1.13899490
         1.27876208     1.36257134     1.37889856     1.44826076     1.49694017
         1.51362118     1.55388037     1.57134986     1.59438205     1.61199793
         1.68319435     1.72332565     1.74499436     1.76679532     1.87410554
         1.93932745     1.95776861     2.01048770     2.01818039     2.13229395
         2.16682453     2.23465097     2.31396471     2.37104325     2.43527051
         2.44849252     2.55786555     2.72189081     2.77819286     2.83720684
         2.88679795     2.96988559     3.03905494     3.15895567     3.27378591
         3.43619309     3.76330770     3.98189562     4.08992504     4.24587354
        19.80757581    20.34095563    20.45996262    20.62148680    23.35520627
        23.42684563    23.43504374    23.82548273    23.92584808    24.12950861
        27.09504176    31.27741717    35.81342017    39.72811563    39.84463058

 Hartree-Fock orbital energies, symmetry 2 ( B1 ),   11 occupied SCF orbitals

       -20.61279724   -11.28434703   -11.27404294    -1.40549412    -1.05595112
        -0.86847820    -0.73198123    -0.65791454    -0.62662103    -0.53240345
        -0.49443827     0.03601261     0.05990649     0.13025029     0.13318168
         0.15339260     0.17411333     0.18378168     0.21467160     0.26187209
         0.28930728     0.31373790     0.33349684     0.36297965     0.36950801
         0.39429690     0.42213153     0.43856569     0.47190854     0.56927977
         0.57843324     0.59229927     0.64938805     0.67075027     0.68039447
         0.70023924     0.75434120     0.76133927     0.82910201     0.84307634
         0.86750683     0.93323522     1.01500698     1.14162853     1.20824079
         1.25189506     1.31220015     1.41069326     1.42305649     1.48621906
         1.57266103     1.59223412     1.61288383     1.63769450     1.70900947
         1.76126970     1.77115853     1.79149660     1.89201982     1.92800166
         2.00140297     2.08999487     2.23453559     2.26404150     2.33994391
         2.34827795     2.38877540     2.53283057     2.58322413     2.75439088
         2.89854230     2.93451515     3.10817256     3.28467694     3.33551129
         3.41255545     3.75721155     3.86155351     4.22753240    20.30441929
        20.48384154    22.91465350    23.34385215    23.39391912    23.93874377
        24.12196525    24.31005004    31.44668155    35.55924319    39.64440822
        40.03994864

 Hartree-Fock orbital energies, symmetry 3 ( B2 ),    3 occupied SCF orbitals

        -0.72269205    -0.53688060    -0.37820053     0.03147665     0.10683967
         0.12670748     0.13907687     0.18354093     0.19411178     0.24623345
         0.31953669     0.34345928     0.37339519     0.44513582     0.53388190
         0.58789526     0.64285175     0.71482217     0.78642094     0.83935599
         0.87349263     0.92362387     0.92683481     0.98757400     1.14667203
         1.28609491     1.29983085     1.47198768     1.48050157     1.61884296
         1.67422304     1.70920676     1.84780372     1.90000486     1.97807371
         2.08231109     2.17875344     2.29593458     2.53625995     2.68827833
         3.67220875     3.78292072    22.54577279    22.69503527    22.83068861
        23.02713606    30.56762136    39.42417479

 Hartree-Fock orbital energies, symmetry 4 ( A2 ),    2 occupied SCF orbitals

        -0.45656796    -0.36969032     0.08590399     0.13134886     0.18581596
         0.29857171     0.41329695     0.49063888     0.54823696     0.66178409
         0.73607475     0.89501055     0.90201931     0.94502871     1.03579838
         1.09332996     1.21389770     1.24779409     1.33921277     1.48888842
         1.66919595     1.68859166     1.85848069     2.00254638     2.11536971
         2.21724737     2.35707097     2.47238293     2.60916893     3.66876244
         4.00413716    22.69232176    22.85925790    39.49939262

    E(LUMO) :     0.02656989   (in symmetry 1)
  - E(HOMO) :    -0.36969032   (in symmetry 4)
  --------------------------
    gap     :     0.39626021

---> (Re)generating AOTWOINT


     ************************************************************************
     ************************** Output from HERINT **************************
     ************************************************************************


 Threshold for neglecting two-electron integrals:  1.00D-12
 HERMIT - Number of two-electron integrals written:   203838667 ( 23.5% )
 HERMIT - Megabytes written:                           3111.635

  Time used in TWOINT     is      39.42 seconds

 2-el. integral transformation level 5: Total CPU and WALL times (sec)     411.422     413.164

 MP2 move   0.991739 electrons to unoccupied HF orbitals


@   Hartree-Fock total energy   :          -434.2362651877
@   + MP2 contribution          :            -1.7251554127
@   = MP2 second order energy   :          -435.9614206004

 Natural orbital occupation numbers, symmetry 1 (irrep A1 )
 Sum =    32.00731645; RHF =    32.00000000; Difference =     0.00731645

         1.99928987     1.99907496     1.99876139     1.99875596     1.99875138
         1.99874637     1.98695811     1.98412710     1.97952856     1.97256249
         1.96900978     1.96842695     1.96537538     1.96218289     1.95516493
         1.94677915     0.04256169     0.03423512     0.02557124     0.02376463
         0.01918553     0.01861792     0.01723195     0.01648544     0.01378847
         0.01267788     0.01165450     0.00982296     0.00852473     0.00788393
         0.00742115     0.00666410     0.00563848     0.00450165     0.00307899
         0.00294476     0.00269510     0.00260832     0.00219886     0.00199212
         0.00185320     0.00167024     0.00159152     0.00130916     0.00120310
         0.00116212     0.00105973     0.00096114     0.00071603     0.00065131
         0.00061205     0.00053598     0.00049896     0.00046304     0.00043909
         0.00041643     0.00040137     0.00038699     0.00037684     0.00035081
         0.00034139     0.00032283     0.00031236     0.00028989     0.00026680
         0.00025931     0.00022565     0.00021405     0.00020233     0.00019541
         0.00018587     0.00018532     0.00017570     0.00016988     0.00016794
         0.00016164     0.00015565     0.00014951     0.00014075     0.00013298
         0.00012531     0.00012373     0.00012175     0.00011083     0.00010509
         0.00009364     0.00007745     0.00007119     0.00005755     0.00005472
         0.00005120     0.00003961     0.00003412     0.00002764     0.00002048
         0.00001775     0.00001453     0.00001241     0.00001117     0.00000933
         0.00000873     0.00000836     0.00000687     0.00000310     0.00000285
         0.00000196     0.00000102     0.00000055     0.00000036     0.00000018
         0.00000016     0.00000000    -0.00000010    -0.00000051    -0.00005571

 Natural orbital occupation numbers, symmetry 2 (irrep B1 )
 Sum =    21.95409728; RHF =    22.00000000; Difference =    -0.04590272

         1.99928975     1.99875711     1.99875075     1.98416279     1.98002257
         1.97275505     1.96274298     1.96062247     1.95483078     1.95433059
         1.94651323     0.03824494     0.02540665     0.02372507     0.01907828
         0.01660362     0.01595298     0.01515241     0.01122785     0.01050469
         0.00911961     0.00768630     0.00576224     0.00539562     0.00513732
         0.00398357     0.00312641     0.00272930     0.00240552     0.00212743
         0.00173292     0.00162206     0.00151940     0.00131791     0.00117688
         0.00102187     0.00096834     0.00069480     0.00064144     0.00056790
         0.00049190     0.00044010     0.00042321     0.00037368     0.00035255
         0.00033896     0.00030443     0.00029234     0.00026997     0.00025978
         0.00023750     0.00021133     0.00019852     0.00018789     0.00018267
         0.00017782     0.00017024     0.00016935     0.00016009     0.00015423
         0.00014365     0.00013376     0.00012876     0.00012579     0.00011876
         0.00011198     0.00009495     0.00008942     0.00006797     0.00005505
         0.00004561     0.00003702     0.00003060     0.00002850     0.00002341
         0.00001506     0.00001433     0.00001140     0.00001058     0.00000857
         0.00000469     0.00000352     0.00000180     0.00000124     0.00000058
         0.00000027     0.00000014    -0.00000003    -0.00000021    -0.00000068
        -0.00001715

 Natural orbital occupation numbers, symmetry 3 (irrep B2 )
 Sum =     6.07741159; RHF =     6.00000000; Difference =     0.07741159

         1.95083080     1.94423312     1.90914403     0.10191644     0.06691741
         0.02956787     0.01040727     0.01028173     0.00870966     0.00795592
         0.00617227     0.00528301     0.00449995     0.00387756     0.00342013
         0.00305966     0.00151093     0.00143681     0.00099654     0.00088795
         0.00086240     0.00066042     0.00060659     0.00049543     0.00047291
         0.00041712     0.00033341     0.00029026     0.00025031     0.00023050
         0.00019723     0.00019556     0.00018981     0.00017677     0.00015350
         0.00013003     0.00012160     0.00011113     0.00010212     0.00008346
         0.00008029     0.00006194     0.00003557     0.00001992     0.00001043
         0.00000749     0.00000506     0.00000124

 Natural orbital occupation numbers, symmetry 4 (irrep A2 )
 Sum =     3.96117468; RHF =     4.00000000; Difference =    -0.03882532

         1.91660439     1.90842534     0.06641427     0.01463887     0.01039539
         0.00928960     0.00793194     0.00570892     0.00513043     0.00405345
         0.00356417     0.00153859     0.00120207     0.00093391     0.00077882
         0.00072851     0.00067308     0.00056335     0.00040719     0.00037012
         0.00034054     0.00029704     0.00021441     0.00019696     0.00016299
         0.00013288     0.00011667     0.00010383     0.00009345     0.00006942
         0.00005067     0.00002057     0.00001750     0.00000531

 Time used for MP2 natural orbitals :     443.156 CPU seconds,     444.930 wall seconds.

 CPU and wall time for MP2 :     443.156     444.930


        SIRIUS MCSCF optimization (SIROPT)
 ================================================


 Fock matrix screening setting for SIRCNO: IFTHRS =    9


 ----- Output from SIRIUS CI module (CICTL) -----




 2-el. integral transformation level 0: Total CPU and WALL times (sec)      99.875      99.864


 --- SIRCI.CIST1: plus combination of all degenerate
                 configurations is used as start vectors.


 (CIST1) 8 lowest diagonal elements:

 Element no. Config.no.    Active energy      Total energy

         1 :         67    -17.3550524729   -434.2179048122
         2 :         69    -17.0636912720   -433.9265436114
         3 :         81    -17.0636912720   -433.9265436114
         4 :         68    -17.0162350612   -433.8790874006
         5 :         74    -17.0162350612   -433.8790874006
         6 :         78    -16.9031951016   -433.7660474410
         7 :         96    -16.9031951016   -433.7660474410
         8 :         71    -16.8613180704   -433.7241704098


 Convergence threshold for CI optimization :     0.00000500



 *** Reached maximum number of CI iterations:    3
              1 CI roots are not converged.


@ Final CI energies and residuals in symmetry 1 (irrep A1 )
@    1     -434.266565621385894       4.75D-03

   --- OUTPUT FROM SIRCNO     Keyword = FD+NO 


 Occupations of CAS natural orbitals:

 Symmetry  1 ( irrep A1  in C2v )

   1.999846554

 Symmetry  2 ( irrep B1  in C2v )

   1.999845947

 Symmetry  3 ( irrep B2  in C2v )

   1.988963153   0.087565159

 Symmetry  4 ( irrep A2  in C2v )

   1.916000168   1.968494449   0.039284570


 --- MACRO ITERATION  1 ---
 --------------------------

 2-el. integral transformation level 3: Total CPU and WALL times (sec)     101.750     101.775

 Fock matrix screening setting for this macro iteration: 10^( -9)

 Total MCSCF energy       :          -434.266565623671681  (MACRO    1)

 - Nuclear repulsion      :           413.803377248498634
 - Inactive energy        :          -830.666229588463239
 - Active energy          :           -17.403713283707084

 Norm of total gradient   :             0.518663903670
 -    of CI gradient      :             0.009506992085
 -    of orbital gradient :             0.518576765843
      Virial theorem: -V/T =      2.000726
@    MULPOP   C       1.53; C   _1  0.28; C   _2  0.28; C   _1  0.48; C   _2  0.48; C       0.33; N       0.37; O   _1 -0.67; O   _2 -0.67; H   _1 -0.49; 
@             H   _2 -0.49; H   _1 -0.47; H   _2 -0.47; H      -0.47; 

 Residual norm when dim(red L) =   7
 NEO root     CSF        orbital          total
    1     0.03996563     0.02651923     0.04796375 converged

 (NEONEX) NEO vector is converged.

   --- OUTPUT FROM SIRCNO     Keyword = FD+NO 


 Occupations of CAS natural orbitals:

 Symmetry  1 ( irrep A1  in C2v )

   1.999864448

 Symmetry  2 ( irrep B1  in C2v )

   1.999660634

 Symmetry  3 ( irrep B2  in C2v )

   1.987380883   0.192256087

 Symmetry  4 ( irrep A2  in C2v )

   1.808768868   1.955948685   0.056120394


 --- MACRO ITERATION  2 ---
 --------------------------

 2-el. integral transformation level 3: Total CPU and WALL times (sec)     101.250     101.300

 Fock matrix screening setting for this macro iteration: 10^( -9)

 Total MCSCF energy       :          -434.279309612163217  (MACRO    2)

 - Nuclear repulsion      :           413.803377248498634
 - Inactive energy        :          -831.039532197136168
 - Active energy          :           -17.043154663525684

 Norm of total gradient   :             0.138220798681
 -    of CI gradient      :             0.106270714115
 -    of orbital gradient :             0.088382829268
      Virial theorem: -V/T =      2.001554
@    MULPOP   C       1.94; C   _1  0.13; C   _2  0.13; C   _1  0.47; C   _2  0.47; C       0.27; N       0.37; O   _1 -0.78; O   _2 -0.78; H   _1 -0.45; 
@             H   _2 -0.45; H   _1 -0.45; H   _2 -0.45; H      -0.44; 

 (SIRNEO) iteration (  2,  7)
 Micro iteration termination criterion met, EVAL(ISTATE+1) = -6.19D-04

   --- OUTPUT FROM SIRCNO     Keyword = FD+NO 


 Occupations of CAS natural orbitals:

 Symmetry  1 ( irrep A1  in C2v )

   1.999756257

 Symmetry  2 ( irrep B1  in C2v )

   1.997723839

 Symmetry  3 ( irrep B2  in C2v )

   1.989115089   0.142988197

 Symmetry  4 ( irrep A2  in C2v )

   1.860059493   1.964364012   0.045993113


 --- MACRO ITERATION  3 ---
 --------------------------

 2-el. integral transformation level 3: Total CPU and WALL times (sec)     100.484     100.497

 Fock matrix screening setting for this macro iteration: 10^( -9)

 Total MCSCF energy       :          -434.287852173671581  (MACRO    3)

 - Nuclear repulsion      :           413.803377248498634
 - Inactive energy        :          -831.094237229857299
 - Active energy          :           -16.996992192312931

 Norm of total gradient   :             0.045168461094
 -    of CI gradient      :             0.039111175312
 -    of orbital gradient :             0.022594376365
      Virial theorem: -V/T =      2.001564
@    MULPOP   C       1.93; C   _1  0.13; C   _2  0.13; C   _1  0.48; C   _2  0.48; C       0.26; N       0.42; O   _1 -0.80; O   _2 -0.80; H   _1 -0.45; 
@             H   _2 -0.45; H   _1 -0.44; H   _2 -0.44; H      -0.45; 

 (SIRNEO) iteration (  3,  9)
 Micro iteration termination criterion met, EVAL(ISTATE+1) = -6.86D-05

   --- OUTPUT FROM SIRCNO     Keyword = FD+NO 


 Occupations of CAS natural orbitals:

 Symmetry  1 ( irrep A1  in C2v )

   1.999604577

 Symmetry  2 ( irrep B1  in C2v )

   1.999464031

 Symmetry  3 ( irrep B2  in C2v )

   1.989088835   0.127700703

 Symmetry  4 ( irrep A2  in C2v )

   1.873916256   1.964653108   0.045572491


 --- MACRO ITERATION  4 ---
 --------------------------

 2-el. integral transformation level 3: Total CPU and WALL times (sec)     100.969     101.003

 Fock matrix screening setting for this macro iteration: 10^( -9)

 Total MCSCF energy       :          -434.288631645409225  (MACRO    4)

 - Nuclear repulsion      :           413.803377248498634
 - Inactive energy        :          -830.132430680421749
 - Active energy          :           -17.959578213486111

 Norm of total gradient   :             0.016442531344
 -    of CI gradient      :             0.012207799061
 -    of orbital gradient :             0.011014829962
      Virial theorem: -V/T =      2.001608
@    MULPOP   C       1.93; C   _1  0.13; C   _2  0.13; C   _1  0.48; C   _2  0.48; C       0.27; N       0.43; O   _1 -0.81; O   _2 -0.81; H   _1 -0.45; 
@             H   _2 -0.45; H   _1 -0.44; H   _2 -0.44; H      -0.45; 

 (SIRNEO) iteration (  4,  9)
 Micro iteration termination criterion met, EVAL(ISTATE+1) = -3.96D-05

   --- OUTPUT FROM SIRCNO     Keyword = FD+NO 


 Occupations of CAS natural orbitals:

 Symmetry  1 ( irrep A1  in C2v )

   1.999437926

 Symmetry  2 ( irrep B1  in C2v )

   1.999160932

 Symmetry  3 ( irrep B2  in C2v )

   1.989069907   0.127555862

 Symmetry  4 ( irrep A2  in C2v )

   1.874618431   1.964371995   0.045784947


 --- MACRO ITERATION  5 ---
 --------------------------

 2-el. integral transformation level 3: Total CPU and WALL times (sec)     100.891     100.929

 Fock matrix screening setting for this macro iteration: 10^( -9)

 Total MCSCF energy       :          -434.289029701825768  (MACRO    5)

 - Nuclear repulsion      :           413.803377248498634
 - Inactive energy        :          -829.955906679285931
 - Active energy          :           -18.136500271038457

 Norm of total gradient   :             0.010730249888
 -    of CI gradient      :             0.010287080951
 -    of orbital gradient :             0.003051922047
      Virial theorem: -V/T =      2.001568
@    MULPOP   C       1.93; C   _1  0.13; C   _2  0.13; C   _1  0.48; C   _2  0.48; C       0.27; N       0.43; O   _1 -0.80; O   _2 -0.80; H   _1 -0.45; 
@             H   _2 -0.45; H   _1 -0.44; H   _2 -0.44; H      -0.45; 

 Residual norm when dim(red L) =  13
 NEO root     CSF        orbital          total
    1     0.00100850     0.00053113     0.00113981 converged

 (NEONEX) NEO vector is converged.

   --- OUTPUT FROM SIRCNO     Keyword = FD+NO 


 Occupations of CAS natural orbitals:

 Symmetry  1 ( irrep A1  in C2v )

   1.998273841

 Symmetry  2 ( irrep B1  in C2v )

   1.999417975

 Symmetry  3 ( irrep B2  in C2v )

   1.989067135   0.126170454

 Symmetry  4 ( irrep A2  in C2v )

   1.876905755   1.964189218   0.045975622


 --- MACRO ITERATION  6 ---
 --------------------------

 2-el. integral transformation level 3: Total CPU and WALL times (sec)     101.078     101.118

 Fock matrix screening setting for this macro iteration: 10^( -9)

 Total MCSCF energy       :          -434.289308706792383  (MACRO    6)

 - Nuclear repulsion      :           413.803377248498634
 - Inactive energy        :          -830.118367239883355
 - Active energy          :           -17.974318715407669

 Norm of total gradient   :             0.012667662405
 -    of CI gradient      :             0.012138170802
 -    of orbital gradient :             0.003624152369
      Virial theorem: -V/T =      2.001564
@    MULPOP   C       1.93; C   _1  0.13; C   _2  0.13; C   _1  0.48; C   _2  0.48; C       0.27; N       0.43; O   _1 -0.81; O   _2 -0.81; H   _1 -0.45; 
@             H   _2 -0.45; H   _1 -0.44; H   _2 -0.44; H      -0.45; 

 Residual norm when dim(red L) =  19
 NEO root     CSF        orbital          total
    1     0.00008530     0.00004653     0.00009717 converged

 (NEONEX) NEO vector is converged.

   --- OUTPUT FROM SIRCNO     Keyword = FD+NO 


 Occupations of CAS natural orbitals:

 Symmetry  1 ( irrep A1  in C2v )

   1.998653847

 Symmetry  2 ( irrep B1  in C2v )

   1.999485757

 Symmetry  3 ( irrep B2  in C2v )

   1.989052545   0.125895766

 Symmetry  4 ( irrep A2  in C2v )

   1.876730155   1.964200466   0.045981464


 --- MACRO ITERATION  7 ---
 --------------------------

 2-el. integral transformation level 3: Total CPU and WALL times (sec)     101.203     101.213

 Fock matrix screening setting for this macro iteration: 10^( -9)

 Total MCSCF energy       :          -434.289349546512369  (MACRO    7)

 - Nuclear repulsion      :           413.803377248498634
 - Inactive energy        :          -830.042888022253464
 - Active energy          :           -18.049838772757546

 Norm of total gradient   :             0.000516982149
 -    of CI gradient      :             0.000498569330
 -    of orbital gradient :             0.000136744891
      Virial theorem: -V/T =      2.001564
@    MULPOP   C       1.93; C   _1  0.13; C   _2  0.13; C   _1  0.48; C   _2  0.48; C       0.27; N       0.43; O   _1 -0.80; O   _2 -0.80; H   _1 -0.45; 
@             H   _2 -0.45; H   _1 -0.44; H   _2 -0.44; H      -0.45; 

 Residual norm when dim(red L) =  17
 NEO root     CSF        orbital          total
    1     0.00000638     0.00000503     0.00000812 converged

 (NEONEX) NEO vector is converged.

   --- OUTPUT FROM SIRCNO     Keyword = FD+NO 


 Occupations of CAS natural orbitals:

 Symmetry  1 ( irrep A1  in C2v )

   1.998676051

 Symmetry  2 ( irrep B1  in C2v )

   1.999478261

 Symmetry  3 ( irrep B2  in C2v )

   1.989051594   0.125897707

 Symmetry  4 ( irrep A2  in C2v )

   1.876713867   1.964202218   0.045980302


 --- MACRO ITERATION  8 ---
 --------------------------

 2-el. integral transformation level 3: Total CPU and WALL times (sec)     100.719     100.742

 Fock matrix screening setting for this macro iteration: 10^( -9)

 Total MCSCF energy       :          -434.289349979722431  (MACRO    8)

 - Nuclear repulsion      :           413.803377248498634
 - Inactive energy        :          -830.042375362226721
 - Active energy          :           -18.050351865994340

 Norm of total gradient   :             0.000022983463
 -    of CI gradient      :             0.000022332471
 -    of orbital gradient :             0.000005431422
      Virial theorem: -V/T =      2.001564
@    MULPOP   C       1.93; C   _1  0.13; C   _2  0.13; C   _1  0.48; C   _2  0.48; C       0.27; N       0.43; O   _1 -0.80; O   _2 -0.80; H   _1 -0.45; 
@             H   _2 -0.45; H   _1 -0.44; H   _2 -0.44; H      -0.45; 

 Residual norm when dim(red L) =   4
 NEO root     CSF        orbital          total
    1     0.00000684     0.00000648     0.00000942 converged

 (NEONEX) NEO vector is converged.

   --- OUTPUT FROM SIRCNO     Keyword = FD+NO 


 Occupations of CAS natural orbitals:

 Symmetry  1 ( irrep A1  in C2v )

   1.998676869

 Symmetry  2 ( irrep B1  in C2v )

   1.999478296

 Symmetry  3 ( irrep B2  in C2v )

   1.989051661   0.125895674

 Symmetry  4 ( irrep A2  in C2v )

   1.876715056   1.964202020   0.045980425


 --- MACRO ITERATION  9 ---
 --------------------------

 2-el. integral transformation level 3: Total CPU and WALL times (sec)     100.828     100.848

 Fock matrix screening setting for this macro iteration: 10^( -9)

 Total MCSCF energy       :          -434.289349979894268  (MACRO    9)

 - Nuclear repulsion      :           413.803377248498634
 - Inactive energy        :          -830.042268024181681
 - Active energy          :           -18.050459204211201

 Norm of total gradient   :             0.000009416709
 -    of CI gradient      :             0.000006834932
 -    of orbital gradient :             0.000006477507
      Virial theorem: -V/T =      2.001564
@    MULPOP   C       1.93; C   _1  0.13; C   _2  0.13; C   _1  0.48; C   _2  0.48; C       0.27; N       0.43; O   _1 -0.80; O   _2 -0.80; H   _1 -0.45; 
@             H   _2 -0.45; H   _1 -0.44; H   _2 -0.44; H      -0.45; 

 (SIRSTP) Energy difference;
 actual, predicted and ratio:  -0.000000000171838  -0.000000000164736    1.043111
 Close to convergence, ratio set to one.

 *** Optimization control: MCSCF converged ***
     Number of macro iterations used            9
     Number of micro iterations used           76
     Total number of CPU seconds used      3872.38

 CPU and wall time for MCSCF :    3872.375    3873.220


                     .----------------------------------------.
                     | --- SIRIUS OPTIMIZATION STATISTICS --- |
                     `----------------------------------------'


 
     Date and time (Linux)  : Sat Feb 22 13:44:16 2020
     Host name              : Lab2-333-NPs                            


  ITER ITMIC     EMCSCF           GRDNRM        RATIO      STPLNG
 ---------------------------------------------------------------------
    1    6   -434.266565623672   0.5186639037  0.000000   0.5336988639
    2    7   -434.279309612163   0.1382207987  0.507721   0.7543672478
    3    9   -434.287852173672   0.0451684611  1.012024   0.6974313499
    4    9   -434.288631645409   0.0164425313  0.851212   0.7159822324
    5   11   -434.289029701826   0.0107302499  0.722286   0.7239044519
    6   17   -434.289308706792   0.0126676624  0.477932   0.0815808299
    7   15   -434.289349546512   0.0005169821  1.041426   0.0149640325
    8    2   -434.289349979722   0.0000229835  1.010672   0.0001574239
    9    0   -434.289349979894   0.0000094167  1.000000   0.0000000000


  ITER  INDGCM  GCIMAX      GCINRM     INDGOM  GOBMAX      GOBNRM      GRDNRM
 ------------------------------------------------------------------------------
    1     75   -0.003482    0.009507   2267    0.064077    0.518577    0.518664
    2     56   -0.082406    0.106271   2626    0.025830    0.088383    0.138221
    3      1   -0.034166    0.039111   2654   -0.004985    0.022594    0.045168
    4      1    0.009128    0.012208   2491    0.002039    0.011015    0.016443
    5     26   -0.009131    0.010287   2491   -0.001043    0.003052    0.010730
    6     26    0.010664    0.012138   2491   -0.002386    0.003624    0.012668
    7     26    0.000481    0.000499   2491   -0.000064    0.000137    0.000517
    8     26    0.000021    0.000022   2491   -0.000001    0.000005    0.000023
    9      1   -0.000005    0.000007   1874   -0.000001    0.000006    0.000009


  ITER ITMIC NCLIN NOLIN   TIMMAC    TIMITR    TIMMIC    TIMLIN    TIMMIC/ITMIC
 ------------------------------------------------------------------------------

    1     6     1     5    345.47    101.75    213.31    182.91     35.55
    2     7     3     5    374.28    101.25    242.66    212.64     34.67
    3     9     2     8    435.47    100.48    305.06    275.00     33.90
    4     9     2     8    435.97    100.97    304.89    274.83     33.88
    5    11     4     8    491.31    100.89    360.39    330.34     32.76
    6    17     7    11    665.94    101.08    534.86    504.81     31.46
    7    15     5    11    610.81    101.20    479.56    449.45     31.97
    8     2     1     2    224.09    100.72     93.38     63.47     46.69
[...]

       No.  Residual tot.,    conf., and orb.    Bnorm      Frequency 
      ----------------------------------------------------------------
         1    1.96032D+00  1.38D+00  1.40D+00  1.27D+02    0.00000D+00

 ** RSPCTL MICROITERATION NUMBER    8

 *** INFO, negative eigenvalues in reduced matrix. Symmetry  4,  triplet       F Dimension of reduced matrix =    18

 GP * SOLUTION vector at frequency     0.00000 a.u.
 after    9 linear transformations is      6.61792320D+03
 INERTIA (POS,ZER,NEG) of reduced matrix is   17    0    1
 Determinant of reduced matrix is -6.77 * 10 **-14.0

       No.  Residual tot.,    conf., and orb.    Bnorm      Frequency 
      ----------------------------------------------------------------
         1    1.49984D+00  1.39D+00  5.64D-01  1.29D+02    0.00000D+00

 ** RSPCTL MICROITERATION NUMBER    9

 *** INFO, negative eigenvalues in reduced matrix. Symmetry  4,  triplet       F Dimension of reduced matrix =    20

 GP * SOLUTION vector at frequency     0.00000 a.u.
 after   10 linear transformations is      6.61965017D+03
 INERTIA (POS,ZER,NEG) of reduced matrix is   19    0    1
 Determinant of reduced matrix is -7.84 * 10 **-14.0

       No.  Residual tot.,    conf., and orb.    Bnorm      Frequency 
      ----------------------------------------------------------------
         1    7.02924D-01  1.57D-01  6.85D-01  1.29D+02    0.00000D+00

 ** RSPCTL MICROITERATION NUMBER   10

 *** INFO, negative eigenvalues in reduced matrix. Symmetry  4,  triplet       F Dimension of reduced matrix =    22

 GP * SOLUTION vector at frequency     0.00000 a.u.
 after   11 linear transformations is      6.61990593D+03
 INERTIA (POS,ZER,NEG) of reduced matrix is   21    0    1
 Determinant of reduced matrix is -5.81 * 10 **-16.0

       No.  Residual tot.,    conf., and orb.    Bnorm      Frequency 
      ----------------------------------------------------------------
         1    3.46247D-01  2.59D-01  2.30D-01  1.31D+02    0.00000D+00

 ** RSPCTL MICROITERATION NUMBER   11

 *** INFO, negative eigenvalues in reduced matrix. Symmetry  4,  triplet       F Dimension of reduced matrix =    24

 GP * SOLUTION vector at frequency     0.00000 a.u.
 after   12 linear transformations is      6.61997483D+03
 INERTIA (POS,ZER,NEG) of reduced matrix is   23    0    1
 Determinant of reduced matrix is -4.24 * 10 **-16.0

       No.  Residual tot.,    conf., and orb.    Bnorm      Frequency 
      ----------------------------------------------------------------
         1    3.32299D-01  4.44D-02  3.29D-01  1.32D+02    0.00000D+00

 ** RSPCTL MICROITERATION NUMBER   12

 *** INFO, negative eigenvalues in reduced matrix. Symmetry  4,  triplet       F Dimension of reduced matrix =    26

 GP * SOLUTION vector at frequency     0.00000 a.u.
 after   13 linear transformations is      6.62006841D+03
 INERTIA (POS,ZER,NEG) of reduced matrix is   25    0    1
 Determinant of reduced matrix is -1.53 * 10 **-18.0

       No.  Residual tot.,    conf., and orb.    Bnorm      Frequency 
      ----------------------------------------------------------------
         1    2.52488D-01  1.21D-01  2.21D-01  1.36D+02    0.00000D+00

 ** RSPCTL MICROITERATION NUMBER   13

 *** INFO, negative eigenvalues in reduced matrix. Symmetry  4,  triplet       F Dimension of reduced matrix =    28

 GP * SOLUTION vector at frequency     0.00000 a.u.
 after   14 linear transformations is      6.62008735D+03
 INERTIA (POS,ZER,NEG) of reduced matrix is   27    0    1
 Determinant of reduced matrix is -3.31 * 10 **-20.0

       No.  Residual tot.,    conf., and orb.    Bnorm      Frequency 
      ----------------------------------------------------------------
         1    1.79439D-01  1.49D-01  1.00D-01  1.39D+02    0.00000D+00

 ** RSPCTL MICROITERATION NUMBER   14

 *** INFO, negative eigenvalues in reduced matrix. Symmetry  4,  triplet       F Dimension of reduced matrix =    30

 GP * SOLUTION vector at frequency     0.00000 a.u.
 after   15 linear transformations is      6.62010600D+03
 INERTIA (POS,ZER,NEG) of reduced matrix is   29    0    1
 Determinant of reduced matrix is -4.23 * 10 **-20.0

       No.  Residual tot.,    conf., and orb.    Bnorm      Frequency 
      ----------------------------------------------------------------
         1    1.33633D-01  3.17D-02  1.30D-01  1.40D+02    0.00000D+00

 *** THE REQUESTED    1 SOLUTION VECTORS CONVERGED

 Convergence of RSP solution vectors, threshold = 1.00D-03
 ---------------------------------------------------------------
 (dimension of paired reduced space:   30)
 RSP solution vector no.    1; norm of residual   9.55D-04

 *** RSPCTL MICROITERATIONS CONVERGED
    XDIPLEN     YDIPLEN      freq1     freq2                Norm
 ---------------------------------------------------------------
                          0.058400 -0.058400        139.90375308


 Perturbation symmetry.     KSYMOP:       1
 Perturbation spin symmetry.TRPLET:       F
 Orbital variables.         KZWOPT:    2762
 Configuration variables.   KZCONF:     115
 Total number of variables. KZVAR :    2877


 CRLRV2 -- linear response calc for sym:  1
 CRLRV2 -- operator label1: YDIPLEN 
 CRLRV2 -- operator label2: YDIPLEN 
 CRLRV2 -- freqr1 :   5.840000D-02
 CRLRV2 -- freqr2 :   5.840000D-02



 ---  SOLVING SETS OF LINEAR EQUATIONS FOR LINEAR RESPONSE PROPERTIES ---

 Operator symmetry = 1  ( A1 ); triplet =   F


 ** RSPCTL MICROITERATION NUMBER    1

       No.  Residual tot.,    conf., and orb.    Bnorm      Frequency 
      ----------------------------------------------------------------
         1    1.59889D+01  1.15D+00  1.59D+01  8.57D+01    1.16800D-01

 ** RSPCTL MICROITERATION NUMBER    2

       No.  Residual tot.,    conf., and orb.    Bnorm      Frequency 
      ----------------------------------------------------------------
         1    7.23714D+00  1.29D+00  7.12D+00  9.10D+01    1.16800D-01

 ** RSPCTL MICROITERATION NUMBER    3

       No.  Residual tot.,    conf., and orb.    Bnorm      Frequency 
      ----------------------------------------------------------------
         1    2.90195D+00  1.48D+00  2.50D+00  9.30D+01    1.16800D-01

 ** RSPCTL MICROITERATION NUMBER    4

       No.  Residual tot.,    conf., and orb.    Bnorm      Frequency 
      ----------------------------------------------------------------
         1    1.81315D+00  1.59D+00  8.75D-01  9.36D+01    1.16800D-01

 ** RSPCTL MICROITERATION NUMBER    5

       No.  Residual tot.,    conf., and orb.    Bnorm      Frequency 
      ----------------------------------------------------------------
         1    1.47064D+00  5.25D-01  1.37D+00  9.39D+01    1.16800D-01

 ** RSPCTL MICROITERATION NUMBER    6

       No.  Residual tot.,    conf., and orb.    Bnorm      Frequency 
      ----------------------------------------------------------------
         1    1.34232D+00  6.95D-01  1.15D+00  9.49D+01    1.16800D-01

 ** RSPCTL MICROITERATION NUMBER    7

       No.  Residual tot.,    conf., and orb.    Bnorm      Frequency 
      ----------------------------------------------------------------
         1    9.22547D-01  7.88D-01  4.80D-01  9.60D+01    1.16800D-01

 ** RSPCTL MICROITERATION NUMBER    8

       No.  Residual tot.,    conf., and orb.    Bnorm      Frequency 
      ----------------------------------------------------------------
         1    6.84042D-01  3.52D-01  5.87D-01  9.63D+01    1.16800D-01

 ** RSPCTL MICROITERATION NUMBER    9

       No.  Residual tot.,    conf., and orb.    Bnorm      Frequency 
      ----------------------------------------------------------------
         1    4.13811D-01  3.59D-01  2.05D-01  9.66D+01    1.16800D-01

 ** RSPCTL MICROITERATION NUMBER   10

       No.  Residual tot.,    conf., and orb.    Bnorm      Frequency 
      ----------------------------------------------------------------
         1    3.00517D-01  6.20D-02  2.94D-01  9.71D+01    1.16800D-01

 ** RSPCTL MICROITERATION NUMBER   11

       No.  Residual tot.,    conf., and orb.    Bnorm      Frequency 
      ----------------------------------------------------------------
         1    1.39518D-01  7.26D-02  1.19D-01  9.70D+01    1.16800D-01

 ** RSPCTL MICROITERATION NUMBER   12

       No.  Residual tot.,    conf., and orb.    Bnorm      Frequency 
      ----------------------------------------------------------------
         1    8.26546D-02  7.56D-02  3.35D-02  9.69D+01    1.16800D-01

 *** THE REQUESTED    1 SOLUTION VECTORS CONVERGED

 Convergence of RSP solution vectors, threshold = 1.00D-03
 ---------------------------------------------------------------
 (dimension of paired reduced space:   26)
 RSP solution vector no.    1; norm of residual   8.53D-04

 *** RSPCTL MICROITERATIONS CONVERGED
    YDIPLEN     YDIPLEN      freq1     freq2                Norm
 ---------------------------------------------------------------
                          0.058400  0.058400         96.91367312
  Time used in CRVEC2     is       2 hours 24 minutes 37 seconds


 ----- CALCULATING CONTRIBUTIONS TO SECOND HYPERPOLARIZABILITY -----


   Contribution                Term         Accumulated
 ------------------------------------------------------
 Na T[4] Nb Nc Nd    70775.79215450      70775.79215450
 Na T[3] Nx Nyz    -136828.09883239     -66052.30667789
 Na X[3] Ny Nz       65692.44581549       -359.86086239
 Nx A[3] Ny Nz       21897.48193850      21537.62107610
 Na X[2] Nyz        -19081.74241063       2455.87866547
 Nx A[2] Nyz        -43824.99552912     -41369.11686365

@ Cubic response function value in a.u. for
@ A operator, symmetry, frequency:   ZDIPLEN    1 -0.058400
@ B operator, symmetry, frequency:   ZDIPLEN    1  0.058400
@ C operator, symmetry, frequency:   ZDIPLEN    1 -0.058400
@ D operator, symmetry, frequency:   ZDIPLEN    1  0.058400

@ << A; B, C, D >>  =      -41369.11686365



   Contribution                Term         Accumulated
 ------------------------------------------------------
 Na T[4] Nb Nc Nd   142815.95684160     142815.95684160
 Na T[3] Nx Nyz   -1439755.00748612   -1296939.05064453
 Na X[3] Ny Nz       58426.84141059   -1238512.20923394
 Nx A[3] Ny Nz       14915.63742012   -1223596.57181382
 Na X[2] Nyz        389318.88329883    -834277.68851499
 Nx A[2] Nyz        -82201.74150474    -916479.43001973

@ Cubic response function value in a.u. for
@ A operator, symmetry, frequency:   XDIPLEN    2 -0.058400
@ B operator, symmetry, frequency:   XDIPLEN    2  0.058400
@ C operator, symmetry, frequency:   ZDIPLEN    1 -0.058400
@ D operator, symmetry, frequency:   ZDIPLEN    1  0.058400

@ << A; B, C, D >>  =     -916479.43001973



   Contribution                Term         Accumulated
 ------------------------------------------------------
 Na T[4] Nb Nc Nd    -4312.77049070      -4312.77049070
 Na T[3] Nx Nyz      -1815.95516395      -6128.72565465
 Na X[3] Ny Nz        8093.93676246       1965.21110781
 Nx A[3] Ny Nz        2788.35527410       4753.56638191
 Na X[2] Nyz         -1624.95798705       3128.60839485
 Nx A[2] Nyz         -7271.67384952      -4143.06545466

@ Cubic response function value in a.u. for
@ A operator, symmetry, frequency:   YDIPLEN    3 -0.058400
@ B operator, symmetry, frequency:   YDIPLEN    3  0.058400
@ C operator, symmetry, frequency:   ZDIPLEN    1 -0.058400
@ D operator, symmetry, frequency:   ZDIPLEN    1  0.058400

@ << A; B, C, D >>  =       -4143.06545466



   Contribution                Term         Accumulated
 ------------------------------------------------------
 Na T[4] Nb Nc Nd   129059.09840843     129059.09840843
 Na T[3] Nx Nyz    -734506.68515751    -605447.58674908
 Na X[3] Ny Nz       56757.98282358    -548689.60392550
 Nx A[3] Ny Nz       14195.66569616    -534493.93822933
 Na X[2] Nyz        154285.48007126    -380208.45815807
 Nx A[2] Nyz        -43006.24081348    -423214.69897156

@ Cubic response function value in a.u. for
@ A operator, symmetry, frequency:   XDIPLEN    2 -0.058400
@ B operator, symmetry, frequency:   ZDIPLEN    1  0.058400
@ C operator, symmetry, frequency:   XDIPLEN    2 -0.058400
@ D operator, symmetry, frequency:   ZDIPLEN    1  0.058400

@ << A; B, C, D >>  =     -423214.69897156



   Contribution                Term         Accumulated
 ------------------------------------------------------
 Na T[4] Nb Nc Nd    -4202.59262363      -4202.59262363
 Na T[3] Nx Nyz      -1687.34538445      -5889.93800808
 Na X[3] Ny Nz        7826.94731584       1937.00930776
 Nx A[3] Ny Nz        2622.81415184       4559.82345959
 Na X[2] Nyz         -1588.54940970       2971.27404989
 Nx A[2] Nyz         -6918.69511360      -3947.42106371

@ Cubic response function value in a.u. for
@ A operator, symmetry, frequency:   YDIPLEN    3 -0.058400
@ B operator, symmetry, frequency:   ZDIPLEN    1  0.058400
@ C operator, symmetry, frequency:   YDIPLEN    3 -0.058400
@ D operator, symmetry, frequency:   ZDIPLEN    1  0.058400

@ << A; B, C, D >>  =       -3947.42106371



   Contribution                Term         Accumulated
 ------------------------------------------------------
 Na T[4] Nb Nc Nd   160901.72548956     160901.72548956
 Na T[3] Nx Nyz    -750349.32253625    -589447.59704669
 Na X[3] Ny Nz       73337.90151792    -516109.69552877
 Nx A[3] Ny Nz       29169.62908433    -486940.06644444
 Na X[2] Nyz        -63663.90661983    -550603.97306426
 Nx A[2] Nyz        127089.42512142    -423514.54794284

@ Cubic response function value in a.u. for
@ A operator, symmetry, frequency:   ZDIPLEN    1 -0.058400
@ B operator, symmetry, frequency:   XDIPLEN    2  0.058400
@ C operator, symmetry, frequency:   ZDIPLEN    1 -0.058400
@ D operator, symmetry, frequency:   XDIPLEN    2  0.058400

@ << A; B, C, D >>  =     -423514.54794284



   Contribution                Term         Accumulated
 ------------------------------------------------------
 Na T[4] Nb Nc Nd 10119679.99085019   10119679.99085019
 Na T[3] Nx Nyz  -10826501.31949596    -706821.32864577
 Na X[3] Ny Nz      792955.51551867      86134.18687290
 Nx A[3] Ny Nz      264318.50517289     350452.69204579
 Na X[2] Nyz        103160.67425881     453613.36630460
 Nx A[2] Nyz       -349135.94382377     104477.42248083

@ Cubic response function value in a.u. for
@ A operator, symmetry, frequency:   XDIPLEN    2 -0.058400
@ B operator, symmetry, frequency:   XDIPLEN    2  0.058400
@ C operator, symmetry, frequency:   XDIPLEN    2 -0.058400
@ D operator, symmetry, frequency:   XDIPLEN    2  0.058400

@ << A; B, C, D >>  =      104477.42248083



   Contribution                Term         Accumulated
 ------------------------------------------------------
 Na T[4] Nb Nc Nd    -1690.81322769      -1690.81322769
 Na T[3] Nx Nyz      -3184.87982775      -4875.69305544
 Na X[3] Ny Nz        8871.36200218       3995.66894674
 Nx A[3] Ny Nz        1369.44144193       5365.11038868
 Na X[2] Nyz         -1633.31584154       3731.79454714
 Nx A[2] Nyz         -7705.63046198      -3973.83591484

@ Cubic response function value in a.u. for
@ A operator, symmetry, frequency:   YDIPLEN    3 -0.058400
@ B operator, symmetry, frequency:   YDIPLEN    3  0.058400
@ C operator, symmetry, frequency:   XDIPLEN    2 -0.058400
@ D operator, symmetry, frequency:   XDIPLEN    2  0.058400

@ << A; B, C, D >>  =       -3973.83591484



   Contribution                Term         Accumulated
 ------------------------------------------------------
 Na T[4] Nb Nc Nd    -1617.62475999      -1617.62475999
 Na T[3] Nx Nyz      -3580.43584874      -5198.06060873
 Na X[3] Ny Nz        8448.91510195       3250.85449323
 Nx A[3] Ny Nz        1058.88293673       4309.73742996
 Na X[2] Nyz          -981.08038243       3328.65704753
 Nx A[2] Nyz         -6239.70215038      -2911.04510285

@ Cubic response function value in a.u. for
@ A operator, symmetry, frequency:   YDIPLEN    3 -0.058400
@ B operator, symmetry, frequency:   XDIPLEN    2  0.058400
@ C operator, symmetry, frequency:   YDIPLEN    3 -0.058400
@ D operator, symmetry, frequency:   XDIPLEN    2  0.058400

@ << A; B, C, D >>  =       -2911.04510285



   Contribution                Term         Accumulated
 ------------------------------------------------------
 Na T[4] Nb Nc Nd     -129.72628382       -129.72628382
 Na T[3] Nx Nyz       1139.09337241       1009.36708859
 Na X[3] Ny Nz         203.06368109       1212.43076968
 Nx A[3] Ny Nz          53.85618047       1266.28695015
 Na X[2] Nyz         -3517.79412810      -2251.50717795
 Nx A[2] Nyz         -1698.68407606      -3950.19125401

@ Cubic response function value in a.u. for
@ A operator, symmetry, frequency:   ZDIPLEN    1 -0.058400
@ B operator, symmetry, frequency:   YDIPLEN    3  0.058400
@ C operator, symmetry, frequency:   ZDIPLEN    1 -0.058400
@ D operator, symmetry, frequency:   YDIPLEN    3  0.058400

@ << A; B, C, D >>  =       -3950.19125401



   Contribution                Term         Accumulated
 ------------------------------------------------------
 Na T[4] Nb Nc Nd     4124.44857668       4124.44857668
 Na T[3] Nx Nyz       6903.64217418      11028.09075086
 Na X[3] Ny Nz       -4996.40249770       6031.68825316
 Nx A[3] Ny Nz          91.95459802       6123.64285118
 Na X[2] Nyz         -7055.76055219       -932.11770101
 Nx A[2] Nyz         -1961.37836852      -2893.49606953

@ Cubic response function value in a.u. for
@ A operator, symmetry, frequency:   XDIPLEN    2 -0.058400
@ B operator, symmetry, frequency:   YDIPLEN    3  0.058400
@ C operator, symmetry, frequency:   XDIPLEN    2 -0.058400
@ D operator, symmetry, frequency:   YDIPLEN    3  0.058400

@ << A; B, C, D >>  =       -2893.49606953



   Contribution                Term         Accumulated
 ------------------------------------------------------
 Na T[4] Nb Nc Nd     -505.83021119       -505.83021119
 Na T[3] Nx Nyz       2238.64141107       1732.81119988
 Na X[3] Ny Nz        1456.01091389       3188.82211377
 Nx A[3] Ny Nz         485.33697130       3674.15908507
 Na X[2] Nyz         -6648.58768131      -2974.42859624
 Nx A[2] Nyz         -6680.80378015      -9655.23237639

@ Cubic response function value in a.u. for
@ A operator, symmetry, frequency:   YDIPLEN    3 -0.058400
@ B operator, symmetry, frequency:   YDIPLEN    3  0.058400
@ C operator, symmetry, frequency:   YDIPLEN    3 -0.058400
@ D operator, symmetry, frequency:   YDIPLEN    3  0.058400

@ << A; B, C, D >>  =       -9655.23237639



  Summary of gamma values for a set of frequencies
 -------------------------------------------------

@ B-freq:  0.058400
@ C-freq: -0.058400
@ D-freq:  0.058400

@ gamma(X;X,X,X)    -104477.4225
@ gamma(X;X,Y,Y)       3973.8359
@ gamma(X;Y,Y,X)       3973.8359
@ gamma(X;Y,X,Y)       2893.4961
@ gamma(X;X,Z,Z)     916479.4300
@ gamma(X;Z,Z,X)     916479.4300
@ gamma(X;Z,X,Z)     423214.6990
@ gamma(Y;Y,X,X)       3973.8359
@ gamma(Y;X,X,Y)       3973.8359
@ gamma(Y;X,Y,X)       2911.0451
@ gamma(Y;Y,Y,Y)       9655.2324
@ gamma(Y;Y,Z,Z)       4143.0655
@ gamma(Y;Z,Z,Y)       4143.0655
@ gamma(Y;Z,Y,Z)       3947.4211
@ gamma(Z;Z,X,X)     916479.4300
@ gamma(Z;X,X,Z)     916479.4300
@ gamma(Z;X,Z,X)     423514.5479
@ gamma(Z;Z,Y,Y)       4143.0655
@ gamma(Z;Y,Y,Z)       4143.0655
@ gamma(Z;Y,Z,Y)       3950.1913
@ gamma(Z;Z,Z,Z)      41369.1169

@ Averaged gamma parallel to the applied field is    293230.500416

  Total CPU  time used in RESPONSE:   7 hours 13 minutes 56 seconds
  Total wall time used in RESPONSE:   7 hours 14 minutes  2 seconds


                   .-------------------------------------------.
                   | End of Dynamic Property Section (RESPONS) |
                   `-------------------------------------------'

  Total CPU  time used in DALTON:   8 hours 33 minutes 47 seconds
  Total wall time used in DALTON:   8 hours 33 minutes 55 seconds

 
     Date and time (Linux)  : Sat Feb 22 20:58:18 2020
     Host name              : Lab2-333-NPs                            
