

     ************************************************************************
     *************** Dalton - An Electronic Structure Program ***************
     ************************************************************************

    This is output from DALTON release Dalton2018.1 (2019)
         ( Web site: http://daltonprogram.org )

   ----------------------------------------------------------------------------

    NOTE:
     
    Dalton is an experimental code for the evaluation of molecular
    properties using (MC)SCF, DFT, CI, and CC wave functions.
    The authors accept no responsibility for the performance of
    the code or for the correctness of the results.
     
    The code (in whole or part) is provided under a licence and
    is not to be reproduced for further distribution without
    the written permission of the authors or their representatives.
     
    See the home page "http://daltonprogram.org" for further information.
     
    If results obtained with this code are published,
    the appropriate citations would be both of:
     
       K. Aidas, C. Angeli, K. L. Bak, V. Bakken, R. Bast,
       L. Boman, O. Christiansen, R. Cimiraglia, S. Coriani,
       P. Dahle, E. K. Dalskov, U. Ekstroem,
       T. Enevoldsen, J. J. Eriksen, P. Ettenhuber, B. Fernandez,
       L. Ferrighi, H. Fliegl, L. Frediani, K. Hald, A. Halkier,
       C. Haettig, H. Heiberg, T. Helgaker, A. C. Hennum,
       H. Hettema, E. Hjertenaes, S. Hoest, I.-M. Hoeyvik,
       M. F. Iozzi, B. Jansik, H. J. Aa. Jensen, D. Jonsson,
       P. Joergensen, J. Kauczor, S. Kirpekar,
       T. Kjaergaard, W. Klopper, S. Knecht, R. Kobayashi, H. Koch,
       J. Kongsted, A. Krapp, K. Kristensen, A. Ligabue,
       O. B. Lutnaes, J. I. Melo, K. V. Mikkelsen, R. H. Myhre,
       C. Neiss, C. B. Nielsen, P. Norman, J. Olsen,
       J. M. H. Olsen, A. Osted, M. J. Packer, F. Pawlowski,
       T. B. Pedersen, P. F. Provasi, S. Reine, Z. Rinkevicius,
       T. A. Ruden, K. Ruud, V. Rybkin, P. Salek, C. C. M. Samson,
       A. Sanchez de Meras, T. Saue, S. P. A. Sauer,
       B. Schimmelpfennig, K. Sneskov, A. H. Steindal,
       K. O. Sylvester-Hvid, P. R. Taylor, A. M. Teale,
       E. I. Tellgren, D. P. Tew, A. J. Thorvaldsen, L. Thoegersen,
       O. Vahtras, M. A. Watson, D. J. D. Wilson, M. Ziolkowski
       and H. Agren,
       "The Dalton quantum chemistry program system",
       WIREs Comput. Mol. Sci. 2014, 4:269–284 (doi: 10.1002/wcms.1172)
     
    and
     
       Dalton, a molecular electronic structure program,
       Release Dalton2018.1 (2019), see http://daltonprogram.org
   ----------------------------------------------------------------------------

    Authors in alphabetical order (major contribution(s) in parenthesis):

  Kestutis Aidas,           Vilnius University,           Lithuania   (QM/MM)
  Celestino Angeli,         University of Ferrara,        Italy       (NEVPT2)
  Keld L. Bak,              UNI-C,                        Denmark     (AOSOPPA, non-adiabatic coupling, magnetic properties)
  Vebjoern Bakken,          University of Oslo,           Norway      (DALTON; geometry optimizer, symmetry detection)
  Radovan Bast,             UiT The Arctic U. of Norway,  Norway      (DALTON installation and execution frameworks)
  Pablo Baudin,             University of Valencia,       Spain       (Cholesky excitation energies)
  Linus Boman,              NTNU,                         Norway      (Cholesky decomposition and subsystems)
  Ove Christiansen,         Aarhus University,            Denmark     (CC module)
  Renzo Cimiraglia,         University of Ferrara,        Italy       (NEVPT2)
  Sonia Coriani,            Technical Univ. of Denmark,   Denmark     (CC module, MCD in RESPONS)
  Janusz Cukras,            University of Trieste,        Italy       (MChD in RESPONS)
  Paal Dahle,               University of Oslo,           Norway      (Parallelization)
  Erik K. Dalskov,          UNI-C,                        Denmark     (SOPPA)
  Thomas Enevoldsen,        Univ. of Southern Denmark,    Denmark     (SOPPA)
  Janus J. Eriksen,         Aarhus University,            Denmark     (Polarizable embedding model, TDA)
  Rasmus Faber,             University of Copenhagen,     Denmark     (Vib.avg. NMR with SOPPA, parallel AO-SOPPA)
  Tobias Fahleson,          KTH Stockholm,                Sweden      (Damped cubic response)
  Berta Fernandez,          U. of Santiago de Compostela, Spain       (doublet spin, ESR in RESPONS)
  Lara Ferrighi,            Aarhus University,            Denmark     (PCM Cubic response)
  Heike Fliegl,             University of Oslo,           Norway      (CCSD(R12))
  Luca Frediani,            UiT The Arctic U. of Norway,  Norway      (PCM)
  Bin Gao,                  UiT The Arctic U. of Norway,  Norway      (Gen1Int library)
  Christof Haettig,         Ruhr-University Bochum,       Germany     (CC module)
  Kasper Hald,              Aarhus University,            Denmark     (CC module)
  Asger Halkier,            Aarhus University,            Denmark     (CC module)
  Frederik Beyer Hansen,    University of Copenhagen,     Denmark     (Parallel AO-SOPPA)
  Erik D. Hedegaard,        Univ. of Southern Denmark,    Denmark     (Polarizable embedding model, QM/MM)
  Hanne Heiberg,            University of Oslo,           Norway      (geometry analysis, selected one-electron integrals)
  Trygve Helgaker,          University of Oslo,           Norway      (DALTON; ABACUS, ERI, DFT modules, London, and much more)
  Alf Christian Hennum,     University of Oslo,           Norway      (Parity violation)
  Hinne Hettema,            University of Auckland,       New Zealand (quadratic response in RESPONS; SIRIUS supersymmetry)
  Eirik Hjertenaes,         NTNU,                         Norway      (Cholesky decomposition)
  Pi A. B. Haase,           University of Copenhagen,     Denmark     (Triplet AO-SOPPA)
  Maria Francesca Iozzi,    University of Oslo,           Norway      (RPA)
  Christoph Jacob           TU Braunschweig               Germany     (Frozen density embedding model)
  Brano Jansik              Technical Univ. of Ostrava    Czech Rep.  (DFT cubic response)
  Hans Joergen Aa. Jensen,  Univ. of Southern Denmark,    Denmark     (DALTON; SIRIUS, RESPONS, ABACUS modules, London, and much more)
  Dan Jonsson,              UiT The Arctic U. of Norway,  Norway      (cubic response in RESPONS module)
  Poul Joergensen,          Aarhus University,            Denmark     (RESPONS, ABACUS, and CC modules)
  Maciej Kaminski,          University of Warsaw,         Poland      (CPPh in RESPONS)
  Joanna Kauczor,           Linkoeping University,        Sweden      (Complex polarization propagator (CPP) module)
  Sheela Kirpekar,          Univ. of Southern Denmark,    Denmark     (Mass-velocity & Darwin integrals)
  Wim Klopper,              KIT Karlsruhe,                Germany     (R12 code in CC, SIRIUS, and ABACUS modules)
  Stefan Knecht,            ETH Zurich,                   Switzerland (Parallel CI and MCSCF)
  Rika Kobayashi,           Australian National Univ.,    Australia   (DIIS in CC, London in MCSCF)
  Henrik Koch,              NTNU,                         Norway      (CC module, Cholesky decomposition)
  Jacob Kongsted,           Univ. of Southern Denmark,    Denmark     (Polarizable embedding model, QM/MM)
  Andrea Ligabue,           University of Modena,         Italy       (CTOCD, AOSOPPA)
  Nanna H. List             Univ. of Southern Denmark,    Denmark     (Polarizable embedding model)
  Ola B. Lutnaes,           University of Oslo,           Norway      (DFT Hessian)
  Juan I. Melo,             University of Buenos Aires,   Argentina   (LRESC, Relativistic Effects on NMR Shieldings)
  Kurt V. Mikkelsen,        University of Copenhagen,     Denmark     (MC-SCRF and QM/MM)
  Rolf H. Myhre,            NTNU,                         Norway      (Subsystems and CC3)
  Christian Neiss,          Univ. Erlangen-Nuernberg,     Germany     (CCSD(R12))
  Christian B. Nielsen,     University of Copenhagen,     Denmark     (QM/MM)
  Patrick Norman,           KTH Stockholm,                Sweden      (Cubic response and complex frequency response in RESPONS)
  Jeppe Olsen,              Aarhus University,            Denmark     (SIRIUS CI/density modules)
  Jogvan Magnus H. Olsen,   Univ. of Southern Denmark,    Denmark     (Polarizable embedding model, QM/MM)
  Anders Osted,             Copenhagen University,        Denmark     (QM/MM)
  Martin J. Packer,         University of Sheffield,      UK          (SOPPA)
  Filip Pawlowski,          Kazimierz Wielki University,  Poland      (CC3)
  Morten N. Pedersen,       Univ. of Southern Denmark,    Denmark     (Polarizable embedding model)
  Thomas B. Pedersen,       University of Oslo,           Norway      (Cholesky decomposition)
  Patricio F. Provasi,      University of Northeastern,   Argentina   (Analysis of coupling constants in localized orbitals)
  Zilvinas Rinkevicius,     KTH Stockholm,                Sweden      (open-shell DFT, ESR)
  Elias Rudberg,            KTH Stockholm,                Sweden      (DFT grid and basis info)
  Torgeir A. Ruden,         University of Oslo,           Norway      (Numerical derivatives in ABACUS)
  Kenneth Ruud,             UiT The Arctic U. of Norway,  Norway      (DALTON; ABACUS magnetic properties and much more)
  Pawel Salek,              KTH Stockholm,                Sweden      (DALTON; DFT code)
  Claire C. M. Samson       University of Karlsruhe       Germany     (Boys localization, r12 integrals in ERI)
  Alfredo Sanchez de Meras, University of Valencia,       Spain       (CC module, Cholesky decomposition)
  Trond Saue,               Paul Sabatier University,     France      (direct Fock matrix construction)
  Stephan P. A. Sauer,      University of Copenhagen,     Denmark     (SOPPA(CCSD), SOPPA prop., AOSOPPA, vibrational g-factors)
  Andre S. P. Gomes,        CNRS/Universite de Lille,     France      (Frozen density embedding model)
  Bernd Schimmelpfennig,    Forschungszentrum Karlsruhe,  Germany     (AMFI module)
  Kristian Sneskov,         Aarhus University,            Denmark     (Polarizable embedding model, QM/MM)
  Arnfinn H. Steindal,      UiT The Arctic U. of Norway,  Norway      (parallel QM/MM, Polarizable embedding model)
  Casper Steinmann,         Univ. of Southern Denmark,    Denmark     (QFIT, Polarizable embedding model)
  K. O. Sylvester-Hvid,     University of Copenhagen,     Denmark     (MC-SCRF)
  Peter R. Taylor,          VLSCI/Univ. of Melbourne,     Australia   (Symmetry handling ABACUS, integral transformation)
  Andrew M. Teale,          University of Nottingham,     England     (DFT-AC, DFT-D)
  David P. Tew,             University of Bristol,        England     (CCSD(R12))
  Olav Vahtras,             KTH Stockholm,                Sweden      (triplet response, spin-orbit, ESR, TDDFT, open-shell DFT)
  Lucas Visscher,           Vrije Universiteit Amsterdam, Netherlands (Frozen density embedding model)
  David J. Wilson,          La Trobe University,          Australia   (DFT Hessian and DFT magnetizabilities)
  Hans Agren,               KTH Stockholm,                Sweden      (SIRIUS module, RESPONS, MC-SCRF solvation model)
 --------------------------------------------------------------------------------

     Date and time (Linux)  : Tue Mar  3 13:21:51 2020
     Host name              : Lab2-333-NPs                            

 * Work memory size             :  1024000000 =  7.629 gigabytes.

 * Directories for basis set searches:
   1) /home/lab333/dalton/build_2018_atlas
   2) /home/lab333/dalton/build_2018_atlas/basis


Compilation information
-----------------------

 Who compiled             | lab333
 Host                     | Lab2-333-NPs
 System                   | Linux-4.4.0-43-Microsoft
 CMake generator          | Unix Makefiles
 Processor                | x86_64
 64-bit integers          | OFF
 MPI                      | OFF
 Fortran compiler         | /usr/bin/gfortran
 Fortran compiler version | GNU Fortran (Ubuntu 7.3.0-27ubuntu1~18.04) 7.3.0
 C compiler               | /usr/bin/gcc
 C compiler version       | gcc (Ubuntu 7.3.0-27ubuntu1~18.04) 7.3.0
 C++ compiler             | /usr/bin/g++
 C++ compiler version     | g++ (Ubuntu 7.3.0-27ubuntu1~18.04) 7.3.0
 BLAS                     | /usr/lib/x86_64-linux-gnu/libf77blas.so;/usr/lib/x
                          | 86_64-linux-gnu/libcblas.so;/usr/lib/x86_64-linux-
                          | gnu/libatlas.so
 LAPACK                   | /usr/lib/x86_64-linux-gnu/libatlas.so;/usr/lib/x86
                          | _64-linux-gnu/atlas/liblapack.so
 Static linking           | OFF
 Last Git revision        | da625bf48c74028e805616daee31bc5d76b3a20d
 Git branch               | (HEAD detached at Dalton2018.1)
 Configuration time       | 2019-01-18 10:20:51.437510


   Content of the .dal input file
 ----------------------------------

**DALTON INPUT
.RUN RESPONSE
.DIRECT
**WAVE FUNCTIONS
.HF
.MP2
.MCSCF
*CONFIGURATION INPUT
.SPIN MULTIPLICITY
3
.SYMMETRY
1
.INACTIVE ORBITALS
15 10 2 0
.CAS SPACE
1 1 2 3
.ELECTRONS
10
*ORBITAL INPUT
.MOSTART
.HUCKEL
*OPTIMIZATION
.DETERMINANTS
.STATE
2
*CI VECTOR
.PLUS COMBINATIONS
**RESPONSE
*CUBIC
.DIPLEN
.BFREQ
1
0.0584
.CFREQ
1
-0.0584
.DFREQ
1
0.0584
**END OF DALTON INPUT


   Content of the .mol file
 ----------------------------

BASIS
aug-cc-pCVDZ
 nitrobenzene
 Generated by the Dalton Input File Plugin for Avogadro
Atomtypes=4 Angstrom Generators=2 X Y
Charge=6.0 Atoms=4
C        0.0000000000            0.0000000000           -0.0265759623
C       -1.2190534920            0.0000000000           -0.6979856948
C       -1.2105095870            0.0000000000           -2.0897394457
C        0.0000000000            0.0000000000           -2.7841484631
Charge=7.0 Atoms=1
N        0.0000000000            0.0000000000            1.5549291696
Charge=8.0 Atoms=1
O       1.0847503743            0.0            2.1235779798000003
Charge=1.0 Atoms=3
H       -2.1410602955            0.0000000000           -0.1327964319
H       -2.1492827751            0.0000000000           -2.6311811056
H        0.0000000000            0.0000000000           -3.8683953478


       *******************************************************************
       *********** Output from DALTON general input processing ***********
       *******************************************************************

 --------------------------------------------------------------------------------
   Overall default print level:    0
   Print level for DALTON.STAT:    1

    AO-direct calculation (in sections where implemented)
    HERMIT 1- and 2-electron integral sections will be executed
    "Old" integral transformation used (limited to max 255 basis functions)
    Wave function sections will be executed (SIRIUS module)
    Dynamic molecular response properties section will be executed (RESPONSE module)
 --------------------------------------------------------------------------------


   ****************************************************************************
   *************** Output of molecule and basis set information ***************
   ****************************************************************************


    The two title cards from your ".mol" input:
    ------------------------------------------------------------------------
 1:  nitrobenzene                                                           
 2:  Generated by the Dalton Input File Plugin for Avogadro                 
    ------------------------------------------------------------------------

  Coordinates are entered in Angstrom and converted to atomic units.
          - Conversion factor : 1 bohr = 0.52917721 A

  Atomic type no.    1
  --------------------
  Nuclear charge:   6.00000
  Number of symmetry independent centers:    4
  Number of basis sets to read;    2
  Basis set file used for this atomic type with Z =   6 :
     "/home/lab333/dalton/build_2018_atlas/basis/aug-cc-pCVDZ"

  Atomic type no.    2
  --------------------
  Nuclear charge:   7.00000
  Number of symmetry independent centers:    1
  Number of basis sets to read;    2
  Basis set file used for this atomic type with Z =   7 :
     "/home/lab333/dalton/build_2018_atlas/basis/aug-cc-pCVDZ"

  Atomic type no.    3
  --------------------
  Nuclear charge:   8.00000
  Number of symmetry independent centers:    1
  Number of basis sets to read;    2
  Basis set file used for this atomic type with Z =   8 :
     "/home/lab333/dalton/build_2018_atlas/basis/aug-cc-pCVDZ"

  Atomic type no.    4
  --------------------
  Nuclear charge:   1.00000
  Number of symmetry independent centers:    3
  Number of basis sets to read;    2
  Basis set file used for this atomic type with Z =   1 :
     "/home/lab333/dalton/build_2018_atlas/basis/aug-cc-pCVDZ"


                         SYMGRP: Point group information
                         -------------------------------

@    Point group: C2v

@  * The irrep name for each symmetry:    1: A1     2: B1     3: B2     4: A2 

   * The point group was generated by:

      Reflection in the yz-plane
      Reflection in the xz-plane

   * Group multiplication table

        |  E   C2z  Oxz  Oyz
   -----+--------------------
     E  |  E   C2z  Oxz  Oyz
    C2z | C2z   E   Oyz  Oxz
    Oxz | Oxz  Oyz   E   C2z
    Oyz | Oyz  Oxz  C2z   E 

   * Character table

        |  E   C2z  Oxz  Oyz
   -----+--------------------
    A1  |   1    1    1    1
    B1  |   1   -1    1   -1
    B2  |   1   -1   -1    1
    A2  |   1    1   -1   -1

   * Direct product table

        | A1   B1   B2   A2 
   -----+--------------------
    A1  | A1   B1   B2   A2 
    B1  | B1   A1   A2   B2 
    B2  | B2   A2   A1   B1 
    A2  | A2   B2   B1   A1 


                                 Isotopic Masses
                                 ---------------

                           C          12.000000
                           C   _1     12.000000
                           C   _2     12.000000
                           C   _1     12.000000
                           C   _2     12.000000
                           C          12.000000
                           N          14.003074
                           O   _1     15.994915
                           O   _2     15.994915
                           H   _1      1.007825
                           H   _2      1.007825
                           H   _1      1.007825
                           H   _2      1.007825
                           H           1.007825

                       Total mass:   123.032029 amu
                       Natural abundance:  92.716 %

 Center-of-mass coordinates (a.u.):    0.000000    0.000000   -0.313295


  Atoms and basis sets
  --------------------

  Number of atom types :    4
  Total number of atoms:   14

  Basis set used is "aug-cc-pCVDZ" from the basis set library.

  label    atoms   charge   prim   cont     basis
  ----------------------------------------------------------------------
  C           6    6.0000    39    27      [11s6p2d|5s4p2d]                                   
  N           1    7.0000    39    27      [11s6p2d|5s4p2d]                                   
  O           2    8.0000    39    27      [11s6p2d|5s4p2d]                                   
  H           5    1.0000    11     9      [5s2p|3s2p]                                        
  ----------------------------------------------------------------------
  total:     14   64.0000   406   288
  ----------------------------------------------------------------------
  Spherical harmonic basis used.

  Threshold for neglecting AO integrals:  1.00D-12


  Symmetry Coordinates
  --------------------

  Number of coordinates in each symmetry:    14   14    9    5


   Interatomic separations (in Angstrom):
   --------------------------------------

            C           C   _1      C   _2      C   _1      C   _2      C     
            ------      ------      ------      ------      ------      ------
 C     :    0.000000
 C   _1:    1.391719    0.000000
 C   _2:    1.391719    2.438107    0.000000
 C   _1:    2.392065    1.391780    2.799956    0.000000
 C   _2:    2.392065    2.799956    1.391780    2.421019    0.000000
 C     :    2.757573    2.416230    2.416230    1.395542    1.395542    0.000000
 N     :    1.581505    2.561585    2.561585    3.840435    3.840435    4.339078
 O   _1:    2.408287    3.642627    2.824758    4.797944    4.215194    5.026178
 O   _2:    2.408287    2.824758    3.642627    4.215194    4.797944    5.026178
 H   _1:    2.143694    1.081451    3.407316    2.166922    3.881063    3.407904
 H   _2:    2.143694    3.407316    1.081451    3.881063    2.166922    3.407904
 H   _1:    3.376890    2.145360    3.883675    1.083722    3.403140    2.154719
 H   _2:    3.376890    3.883675    2.145360    3.403140    1.083722    2.154719
 H     :    3.841819    3.396703    3.396703    2.151500    2.151500    1.084247

            N           O   _1      O   _2      H   _1      H   _2      H   _1
            ------      ------      ------      ------      ------      ------
 N     :    0.000000
 O   _1:    1.224763    0.000000
 O   _2:    1.224763    2.169501    0.000000
 H   _1:    2.726272    3.936633    2.491388    0.000000
 H   _2:    2.726272    2.491388    3.936633    4.282121    0.000000
 H   _1:    4.705628    5.750366    4.872470    2.498398    4.964773    0.000000
 H   _2:    4.705628    4.872470    5.750366    4.964773    2.498398    4.298566
 H     :    5.423325    6.089370    6.089370    4.305675    4.305675    2.479943

            H   _2      H     
            ------      ------
 H   _2:    0.000000
 H     :    2.479943    0.000000


  Max    interatomic separation is    6.0894 Angstrom (   11.5072 Bohr)
  between atoms   14 and    8, "H     " and "O   _1".

  Min HX interatomic separation is    1.0815 Angstrom (    2.0436 Bohr)

  Min YX interatomic separation is    1.2248 Angstrom (    2.3145 Bohr)


  Bond distances (Angstrom):
  --------------------------

                  atom 1     atom 2       distance
                  ------     ------       --------
  bond distance:  C   _1     C            1.391719
  bond distance:  C   _2     C            1.391719
  bond distance:  C   _1     C   _1       1.391780
  bond distance:  C   _2     C   _2       1.391780
  bond distance:  C          C   _1       1.395542
  bond distance:  C          C   _2       1.395542
  bond distance:  N          C            1.581505
  bond distance:  O   _1     N            1.224763
  bond distance:  O   _2     N            1.224763
  bond distance:  H   _1     C   _1       1.081451
  bond distance:  H   _2     C   _2       1.081451
  bond distance:  H   _1     C   _1       1.083722
  bond distance:  H   _2     C   _2       1.083722
  bond distance:  H          C            1.084247


  Bond angles (degrees):
  ----------------------

                  atom 1     atom 2     atom 3         angle
                  ------     ------     ------         -----
  bond angle:     C   _1     C          C   _2       122.311
  bond angle:     C   _1     C          N            118.844
  bond angle:     C   _2     C          N            118.844
  bond angle:     C          C   _1     C   _1       118.493
  bond angle:     C          C   _1     H   _1       119.647
  bond angle:     C   _1     C   _1     H   _1       121.860
  bond angle:     C          C   _2     C   _2       118.493
  bond angle:     C          C   _2     H   _2       119.647
  bond angle:     C   _2     C   _2     H   _2       121.860
  bond angle:     C   _1     C   _1     C            120.192
  bond angle:     C   _1     C   _1     H   _1       119.623
  bond angle:     C          C   _1     H   _1       120.185
  bond angle:     C   _2     C   _2     C            120.192
  bond angle:     C   _2     C   _2     H   _2       119.623
  bond angle:     C          C   _2     H   _2       120.185
  bond angle:     C   _1     C          C   _2       120.319
  bond angle:     C   _1     C          H            119.841
  bond angle:     C   _2     C          H            119.841
  bond angle:     C          N          O   _1       117.664
  bond angle:     C          N          O   _2       117.664
  bond angle:     O   _1     N          O   _2       124.671




 Principal moments of inertia (u*A**2) and principal axes
 --------------------------------------------------------

   IA     127.027245          0.000000    0.000000    1.000000
   IB     413.334519          1.000000    0.000000    0.000000
   IC     540.361764          0.000000    1.000000    0.000000


 Rotational constants
 --------------------

@    The molecule is planar.

               A                   B                   C

           3978.5088           1222.6876            935.2605 MHz
            0.132709            0.040784            0.031197 cm-1


@  Nuclear repulsion energy :  407.358090739207 Hartree


  Symmetry Orbitals
  -----------------

  Number of orbitals in each symmetry:         115   91   48   34


  Symmetry  A1 ( 1)

    1     C        1s         1
    2     C        1s         2
    3     C        1s         3
    4     C        1s         4
    5     C        1s         5
    6     C        2pz        8
    7     C        2pz       11
    8     C        2pz       14
    9     C        2pz       17
   10     C        3d0       20
   11     C        3d2+      22
   12     C        3d0       25
   13     C        3d2+      27
   14     C        1s        28 +   29
   15     C        1s        30 +   31
   16     C        1s        32 +   33
   17     C        1s        34 +   35
   18     C        1s        36 +   37
   19     C        2px       38 -   39
   20     C        2pz       42 +   43
   21     C        2px       44 -   45
   22     C        2pz       48 +   49
   23     C        2px       50 -   51
   24     C        2pz       54 +   55
   25     C        2px       56 -   57
   26     C        2pz       60 +   61
   27     C        3d0       66 +   67
   28     C        3d1+      68 -   69
   29     C        3d2+      70 +   71
   30     C        3d0       76 +   77
   31     C        3d1+      78 -   79
   32     C        3d2+      80 +   81
   33     C        1s        82 +   83
   34     C        1s        84 +   85
   35     C        1s        86 +   87
   36     C        1s        88 +   89
   37     C        1s        90 +   91
   38     C        2px       92 -   93
   39     C        2pz       96 +   97
   40     C        2px       98 -   99
   41     C        2pz      102 +  103
   42     C        2px      104 -  105
   43     C        2pz      108 +  109
   44     C        2px      110 -  111
   45     C        2pz      114 +  115
   46     C        3d0      120 +  121
   47     C        3d1+     122 -  123
   48     C        3d2+     124 +  125
   49     C        3d0      130 +  131
   50     C        3d1+     132 -  133
   51     C        3d2+     134 +  135
   52     C        1s       136
   53     C        1s       137
   54     C        1s       138
   55     C        1s       139
   56     C        1s       140
   57     C        2pz      143
   58     C        2pz      146
   59     C        2pz      149
   60     C        2pz      152
   61     C        3d0      155
   62     C        3d2+     157
   63     C        3d0      160
   64     C        3d2+     162
   65     N        1s       163
   66     N        1s       164
   67     N        1s       165
   68     N        1s       166
   69     N        1s       167
   70     N        2pz      170
   71     N        2pz      173
   72     N        2pz      176
   73     N        2pz      179
   74     N        3d0      182
   75     N        3d2+     184
   76     N        3d0      187
   77     N        3d2+     189
   78     O        1s       190 +  191
   79     O        1s       192 +  193
   80     O        1s       194 +  195
   81     O        1s       196 +  197
   82     O        1s       198 +  199
   83     O        2px      200 -  201
   84     O        2pz      204 +  205
   85     O        2px      206 -  207
   86     O        2pz      210 +  211
   87     O        2px      212 -  213
   88     O        2pz      216 +  217
   89     O        2px      218 -  219
   90     O        2pz      222 +  223
   91     O        3d0      228 +  229
   92     O        3d1+     230 -  231
   93     O        3d2+     232 +  233
   94     O        3d0      238 +  239
   95     O        3d1+     240 -  241
   96     O        3d2+     242 +  243
   97     H        1s       244 +  245
   98     H        1s       246 +  247
   99     H        1s       248 +  249
  100     H        2px      250 -  251
  101     H        2pz      254 +  255
  102     H        2px      256 -  257
  103     H        2pz      260 +  261
  104     H        1s       262 +  263
  105     H        1s       264 +  265
  106     H        1s       266 +  267
  107     H        2px      268 -  269
  108     H        2pz      272 +  273
  109     H        2px      274 -  275
  110     H        2pz      278 +  279
  111     H        1s       280
  112     H        1s       281
  113     H        1s       282
  114     H        2pz      285
  115     H        2pz      288


  Symmetry  B1 ( 2)

  116     C        2px        6
  117     C        2px        9
  118     C        2px       12
  119     C        2px       15
  120     C        3d1+      21
  121     C        3d1+      26
  122     C        1s        28 -   29
  123     C        1s        30 -   31
  124     C        1s        32 -   33
  125     C        1s        34 -   35
  126     C        1s        36 -   37
  127     C        2px       38 +   39
  128     C        2pz       42 -   43
  129     C        2px       44 +   45
  130     C        2pz       48 -   49
  131     C        2px       50 +   51
  132     C        2pz       54 -   55
  133     C        2px       56 +   57
  134     C        2pz       60 -   61
  135     C        3d0       66 -   67
  136     C        3d1+      68 +   69
  137     C        3d2+      70 -   71
  138     C        3d0       76 -   77
  139     C        3d1+      78 +   79
  140     C        3d2+      80 -   81
  141     C        1s        82 -   83
  142     C        1s        84 -   85
  143     C        1s        86 -   87
  144     C        1s        88 -   89
  145     C        1s        90 -   91
  146     C        2px       92 +   93
  147     C        2pz       96 -   97
  148     C        2px       98 +   99
  149     C        2pz      102 -  103
  150     C        2px      104 +  105
  151     C        2pz      108 -  109
  152     C        2px      110 +  111
  153     C        2pz      114 -  115
  154     C        3d0      120 -  121
  155     C        3d1+     122 +  123
  156     C        3d2+     124 -  125
  157     C        3d0      130 -  131
  158     C        3d1+     132 +  133
  159     C        3d2+     134 -  135
  160     C        2px      141
  161     C        2px      144
  162     C        2px      147
  163     C        2px      150
  164     C        3d1+     156
  165     C        3d1+     161
  166     N        2px      168
  167     N        2px      171
  168     N        2px      174
  169     N        2px      177
  170     N        3d1+     183
  171     N        3d1+     188
  172     O        1s       190 -  191
  173     O        1s       192 -  193
  174     O        1s       194 -  195
  175     O        1s       196 -  197
  176     O        1s       198 -  199
  177     O        2px      200 +  201
  178     O        2pz      204 -  205
  179     O        2px      206 +  207
  180     O        2pz      210 -  211
  181     O        2px      212 +  213
  182     O        2pz      216 -  217
  183     O        2px      218 +  219
  184     O        2pz      222 -  223
  185     O        3d0      228 -  229
  186     O        3d1+     230 +  231
  187     O        3d2+     232 -  233
  188     O        3d0      238 -  239
  189     O        3d1+     240 +  241
  190     O        3d2+     242 -  243
  191     H        1s       244 -  245
  192     H        1s       246 -  247
  193     H        1s       248 -  249
  194     H        2px      250 +  251
  195     H        2pz      254 -  255
  196     H        2px      256 +  257
  197     H        2pz      260 -  261
  198     H        1s       262 -  263
  199     H        1s       264 -  265
  200     H        1s       266 -  267
  201     H        2px      268 +  269
  202     H        2pz      272 -  273
  203     H        2px      274 +  275
  204     H        2pz      278 -  279
  205     H        2px      283
  206     H        2px      286


  Symmetry  B2 ( 3)

  207     C        2py        7
  208     C        2py       10
  209     C        2py       13
  210     C        2py       16
  211     C        3d1-      19
  212     C        3d1-      24
  213     C        2py       40 +   41
  214     C        2py       46 +   47
  215     C        2py       52 +   53
  216     C        2py       58 +   59
  217     C        3d2-      62 -   63
  218     C        3d1-      64 +   65
  219     C        3d2-      72 -   73
  220     C        3d1-      74 +   75
  221     C        2py       94 +   95
  222     C        2py      100 +  101
  223     C        2py      106 +  107
  224     C        2py      112 +  113
  225     C        3d2-     116 -  117
  226     C        3d1-     118 +  119
  227     C        3d2-     126 -  127
  228     C        3d1-     128 +  129
  229     C        2py      142
  230     C        2py      145
  231     C        2py      148
  232     C        2py      151
  233     C        3d1-     154
  234     C        3d1-     159
  235     N        2py      169
  236     N        2py      172
  237     N        2py      175
  238     N        2py      178
  239     N        3d1-     181
  240     N        3d1-     186
  241     O        2py      202 +  203
  242     O        2py      208 +  209
  243     O        2py      214 +  215
  244     O        2py      220 +  221
  245     O        3d2-     224 -  225
  246     O        3d1-     226 +  227
  247     O        3d2-     234 -  235
  248     O        3d1-     236 +  237
  249     H        2py      252 +  253
  250     H        2py      258 +  259
  251     H        2py      270 +  271
  252     H        2py      276 +  277
  253     H        2py      284
  254     H        2py      287


  Symmetry  A2 ( 4)

  255     C        3d2-      18
  256     C        3d2-      23
  257     C        2py       40 -   41
  258     C        2py       46 -   47
  259     C        2py       52 -   53
  260     C        2py       58 -   59
  261     C        3d2-      62 +   63
  262     C        3d1-      64 -   65
  263     C        3d2-      72 +   73
  264     C        3d1-      74 -   75
  265     C        2py       94 -   95
  266     C        2py      100 -  101
  267     C        2py      106 -  107
  268     C        2py      112 -  113
  269     C        3d2-     116 +  117
  270     C        3d1-     118 -  119
  271     C        3d2-     126 +  127
  272     C        3d1-     128 -  129
  273     C        3d2-     153
  274     C        3d2-     158
  275     N        3d2-     180
  276     N        3d2-     185
  277     O        2py      202 -  203
  278     O        2py      208 -  209
  279     O        2py      214 -  215
  280     O        2py      220 -  221
  281     O        3d2-     224 +  225
  282     O        3d1-     226 -  227
  283     O        3d2-     234 +  235
  284     O        3d1-     236 -  237
  285     H        2py      252 -  253
  286     H        2py      258 -  259
  287     H        2py      270 -  271
  288     H        2py      276 -  277

  Symmetries of electric field:  B1 (2)  B2 (3)  A1 (1)

  Symmetries of magnetic field:  B2 (3)  B1 (2)  A2 (4)


                     .---------------------------------------.
                     | Starting in Integral Section (HERMIT) |
                     `---------------------------------------'



 ***************************************************************************************
 ****************** Output from **INTEGRALS input processing (HERMIT) ******************
 ***************************************************************************************


 - Using defaults, no **INTEGRALS input found

 Default print level:        1

 Calculation of one-electron Hamiltonian integrals.

 Center of mass  (bohr):      0.000000000000      0.000000000000     -0.313294721584
 Operator center (bohr):      0.000000000000      0.000000000000      0.000000000000
 Gauge origin    (bohr):      0.000000000000      0.000000000000      0.000000000000
 Dipole origin   (bohr):      0.000000000000      0.000000000000      0.000000000000


     ************************************************************************
     ************************** Output from HERINT **************************
     ************************************************************************



                      Nuclear contribution to dipole moments
                      --------------------------------------

                 au               Debye          C m (/(10**-30)

      z    -28.06554495       -71.33549526      -237.94959930


  Time used in GABGEN     is       0.12 seconds
  Total CPU  time used in HERMIT:   0.42 seconds
  Total wall time used in HERMIT:   0.42 seconds


                        .----------------------------------.
                        | End of Integral Section (HERMIT) |
                        `----------------------------------'



                   .--------------------------------------------.
                   | Starting in Wave Function Section (SIRIUS) |
                   `--------------------------------------------'


 *** Output from Huckel module :

     Using EWMO model:          F
     Using EHT  model:          T
     Number of Huckel orbitals each symmetry:   24   17    6    3

 Huckel EHT eigenvalues for symmetry :  1
          -20.695501     -15.702550     -11.414228     -11.393470     -11.375933
          -11.362259      -1.725380      -1.556742      -1.195769      -0.939307
           -0.820013      -0.781348      -0.649925      -0.590350      -0.494264
           -0.431439      -0.330621      -0.257542      -0.229061      -0.214003
           -0.206209      -0.179752      -0.166642      -0.160932

 Huckel EHT eigenvalues for symmetry :  2
          -20.700503     -11.396439     -11.377834      -1.390745      -1.206640
           -0.880177      -0.647051      -0.568925      -0.527840      -0.481916
           -0.415181      -0.272261      -0.213664      -0.202888      -0.176324
           -0.165534      -0.163541

 Huckel EHT eigenvalues for symmetry :  3
           -0.791639      -0.676689      -0.464487      -0.387357      -0.283444
           -0.237039

 Huckel EHT eigenvalues for symmetry :  4
           -0.592698      -0.460278      -0.288869

 **********************************************************************
 *SIRIUS* a direct, restricted step, second order MCSCF program       *
 **********************************************************************

 
     Date and time (Linux)  : Tue Mar  3 13:21:51 2020
     Host name              : Lab2-333-NPs                            

 Title lines from ".mol" input file:
      nitrobenzene                                                           
      Generated by the Dalton Input File Plugin for Avogadro                 

 Print level on unit LUPRI =   2 is   0
 Print level on unit LUW4  =   2 is   5

@    MC-SCF optimization.

@    Multi-configurational response calculation.
@              Type: complete active space calculation (CAS).

@    This is a combination run starting with
@              a restricted, closed shell Hartree-Fock calculation
@              an MP2 calculation

 Fock matrices are calculated directly without use of integrals on disk.

 Initial molecular orbitals are obtained according to
 ".MOSTART EHT   " input option

     Wave function specification
     ============================
@    Wave function type        --- MC-SCF ---
@    Number of closed shell electrons          54
@    Number of electrons in active shells      10
@    Total charge of the molecule               0

@    Spin multiplicity and 2 M_S                3         2
@    Total number of symmetries                 4 (point group: C2v)
@    Reference state symmetry                   1 (irrep name : A1 )

     Orbital specifications
     ======================
@    Abelian symmetry species          All |    1    2    3    4
@                                          |  A1   B1   B2   A2 
                                       --- |  ---  ---  ---  ---
@    Inactive orbitals                  27 |   15   10    2    0
@    Active orbitals                     7 |    1    1    2    3
@    Secondary orbitals                254 |   99   80   44   31
@    Total number of orbitals          288 |  115   91   48   34
@    Number of basis functions         288 |  115   91   48   34

      ** Automatic occupation of RHF orbitals **

      -- Initial occupation of symmetries is determined from extended Huckel guess.           
      -- Initial occupation of symmetries is :
@    Occupied SCF orbitals              32 |   16   11    3    2

     Optimization information
     ========================
@    Number of determinants                  56
@    Number of orbital rotations           2762
     ------------------------------------------
@    Total number of variables             2818

     Maximum number of macro iterations      40
     Maximum number of micro iterations     960
     Threshold for MCSCF gradient      1.00D-05
     Number of initial trial vectors          2
     Number of initial CI iterations          3
     Number of simultaneous trial vectors     2

@    This calculation converges to state no.   2 for the specified symmetry and spin species.

     Maximum number of NEO/NR iterations  24

    INFORMATION: Switched to "new" integral transformation (from 1988 ;-) )
    because more than 255 basis functions.


 ***********************************************
 ***** DIIS acceleration of SCF iterations *****
 ***********************************************

 C1-DIIS algorithm; max error vectors =    8

 Automatic occupation of symmetries with  64 electrons.

 Iter     Total energy    Error norm  Delta(E)    SCF occupation
 -----------------------------------------------------------------------------
   1  Screening settings (-IFTHRS, JTDIIS, DIFDEN, times)   -8    1    T  2.77D+01  2.77D+01
@  1  -432.302175593       6.37D+00  -4.32D+02    16  11   3   2
      Virial theorem: -V/T =      1.999448
@    MULPOP   C       0.27; C   _1  0.28; C   _2  0.28; C   _1  0.25; C   _2  0.25; C       0.34; N       1.27; O   _1 -1.00; O   _2 -1.00; H   _1 -0.20; 
@             H   _2 -0.20; H   _1 -0.18; H   _2 -0.18; H      -0.19; 
   1  Level shift: doubly occupied orbital energies shifted by -2.00D-01
 -----------------------------------------------------------------------------
   2  Screening settings (-IFTHRS, JTDIIS, DIFDEN, times)   -8    2    T  2.76D+01  2.77D+01
@  2  -433.862951523       2.80D+00  -1.56D+00    16  11   3   2
      Virial theorem: -V/T =      2.001889
@    MULPOP   C       0.77; C   _1  0.40; C   _2  0.40; C   _1  0.40; C   _2  0.40; C       0.35; N       0.32; O   _1 -0.52; O   _2 -0.52; H   _1 -0.40; 
@             H   _2 -0.40; H   _1 -0.40; H   _2 -0.40; H      -0.41; 
   2  Level shift: doubly occupied orbital energies shifted by -1.00D-01
 -----------------------------------------------------------------------------
   3  Screening settings (-IFTHRS, JTDIIS, DIFDEN, times)   -8    3    T  2.75D+01  2.76D+01
@  3  -434.198741551       7.32D-01  -3.36D-01    16  11   3   2
      Virial theorem: -V/T =      2.001278
@    MULPOP   C       1.45; C   _1  0.29; C   _2  0.29; C   _1  0.49; C   _2  0.49; C       0.29; N       0.69; O   _1 -0.88; O   _2 -0.88; H   _1 -0.45; 
@             H   _2 -0.45; H   _1 -0.44; H   _2 -0.44; H      -0.44; 
   3  Level shift: doubly occupied orbital energies shifted by -5.00D-02
 -----------------------------------------------------------------------------
   4  Screening settings (-IFTHRS, JTDIIS, DIFDEN, times)   -8    4    T  2.74D+01  2.74D+01
@  4  -434.225336547       1.81D-01  -2.66D-02    16  11   3   2
      Virial theorem: -V/T =      2.003054
@    MULPOP   C       1.51; C   _1  0.26; C   _2  0.26; C   _1  0.55; C   _2  0.55; C       0.29; N       0.53; O   _1 -0.84; O   _2 -0.84; H   _1 -0.45; 
@             H   _2 -0.45; H   _1 -0.46; H   _2 -0.46; H      -0.46; 
   4  Level shift: doubly occupied orbital energies shifted by -1.25D-02
 -----------------------------------------------------------------------------
   5  Screening settings (-IFTHRS, JTDIIS, DIFDEN, times)  -10    5    F  2.80D+01  2.80D+01
@  5  -434.227989875       5.37D-02  -2.65D-03    16  11   3   2
      Virial theorem: -V/T =      2.002475
@    MULPOP   C       1.55; C   _1  0.24; C   _2  0.24; C   _1  0.54; C   _2  0.54; C       0.28; N       0.52; O   _1 -0.85; O   _2 -0.85; H   _1 -0.44; 
@             H   _2 -0.44; H   _1 -0.44; H   _2 -0.44; H      -0.45; 
 -----------------------------------------------------------------------------
   6  Screening settings (-IFTHRS, JTDIIS, DIFDEN, times)  -10    6    T  2.76D+01  2.76D+01
@  6  -434.228325996       1.45D-02  -3.36D-04    16  11   3   2
      Virial theorem: -V/T =      2.002409
@    MULPOP   C       1.57; C   _1  0.23; C   _2  0.23; C   _1  0.54; C   _2  0.54; C       0.28; N       0.50; O   _1 -0.85; O   _2 -0.85; H   _1 -0.44; 
@             H   _2 -0.44; H   _1 -0.44; H   _2 -0.44; H      -0.44; 
 -----------------------------------------------------------------------------
   7  Screening settings (-IFTHRS, JTDIIS, DIFDEN, times)  -13    7    F  2.80D+01  2.80D+01
@  7  -434.228355381       5.60D-03  -2.94D-05    16  11   3   2
      Virial theorem: -V/T =      2.002441
@    MULPOP   C       1.58; C   _1  0.23; C   _2  0.23; C   _1  0.54; C   _2  0.54; C       0.27; N       0.50; O   _1 -0.85; O   _2 -0.85; H   _1 -0.44; 
@             H   _2 -0.44; H   _1 -0.44; H   _2 -0.44; H      -0.44; 
 -----------------------------------------------------------------------------
   8  Screening settings (-IFTHRS, JTDIIS, DIFDEN, times)  -13    8    T  2.79D+01  2.79D+01
@  8  -434.228359516       2.04D-03  -4.14D-06    16  11   3   2
      Virial theorem: -V/T =      2.002429
@    MULPOP   C       1.58; C   _1  0.23; C   _2  0.23; C   _1  0.54; C   _2  0.54; C       0.28; N       0.50; O   _1 -0.85; O   _2 -0.85; H   _1 -0.44; 
@             H   _2 -0.44; H   _1 -0.44; H   _2 -0.44; H      -0.44; 
 -----------------------------------------------------------------------------
   9  Screening settings (-IFTHRS, JTDIIS, DIFDEN, times)  -13    9    T  2.78D+01  2.78D+01
@  9  -434.228360031       7.10D-04  -5.15D-07    16  11   3   2
      Virial theorem: -V/T =      2.002427
@    MULPOP   C       1.58; C   _1  0.23; C   _2  0.23; C   _1  0.54; C   _2  0.54; C       0.28; N       0.50; O   _1 -0.85; O   _2 -0.85; H   _1 -0.44; 
@             H   _2 -0.44; H   _1 -0.44; H   _2 -0.44; H      -0.44; 
 -----------------------------------------------------------------------------
  10  Screening settings (-IFTHRS, JTDIIS, DIFDEN, times)  -13   10    T  2.78D+01  2.78D+01
@ 10  -434.228360108       2.80D-04  -7.74D-08    16  11   3   2
      Virial theorem: -V/T =      2.002428
@    MULPOP   C       1.58; C   _1  0.23; C   _2  0.23; C   _1  0.54; C   _2  0.54; C       0.28; N       0.50; O   _1 -0.85; O   _2 -0.85; H   _1 -0.44; 
@             H   _2 -0.44; H   _1 -0.44; H   _2 -0.44; H      -0.44; 
 -----------------------------------------------------------------------------
  11  Screening settings (-IFTHRS, JTDIIS, DIFDEN, times)  -13   11    T  2.78D+01  2.78D+01
@ 11  -434.228360126       1.10D-04  -1.80D-08    16  11   3   2
      Virial theorem: -V/T =      2.002428
@    MULPOP   C       1.58; C   _1  0.23; C   _2  0.23; C   _1  0.54; C   _2  0.54; C       0.28; N       0.50; O   _1 -0.85; O   _2 -0.85; H   _1 -0.44; 
@             H   _2 -0.44; H   _1 -0.44; H   _2 -0.44; H      -0.44; 
 -----------------------------------------------------------------------------
  12  Screening settings (-IFTHRS, JTDIIS, DIFDEN, times)  -13   12    T  2.77D+01  2.77D+01
@ 12  -434.228360130       4.99D-05  -3.51D-09    16  11   3   2
      Virial theorem: -V/T =      2.002428
@    MULPOP   C       1.58; C   _1  0.23; C   _2  0.23; C   _1  0.54; C   _2  0.54; C       0.28; N       0.50; O   _1 -0.85; O   _2 -0.85; H   _1 -0.44; 
@             H   _2 -0.44; H   _1 -0.44; H   _2 -0.44; H      -0.44; 
 -----------------------------------------------------------------------------
  13  Screening settings (-IFTHRS, JTDIIS, DIFDEN, times)  -13   13    T  2.76D+01  2.76D+01
@ 13  -434.228360130       2.42D-05  -5.67D-10    16  11   3   2
      Virial theorem: -V/T =      2.002428
@    MULPOP   C       1.58; C   _1  0.23; C   _2  0.23; C   _1  0.54; C   _2  0.54; C       0.28; N       0.50; O   _1 -0.85; O   _2 -0.85; H   _1 -0.44; 
@             H   _2 -0.44; H   _1 -0.44; H   _2 -0.44; H      -0.44; 
 -----------------------------------------------------------------------------
  14  Screening settings (-IFTHRS, JTDIIS, DIFDEN, times)  -13   14    T  2.76D+01  2.76D+01
@ 14  -434.228360130       9.78D-06  -1.98D-10    16  11   3   2
      Virial theorem: -V/T =      2.002428
@    MULPOP   C       1.58; C   _1  0.23; C   _2  0.23; C   _1  0.54; C   _2  0.54; C       0.28; N       0.50; O   _1 -0.85; O   _2 -0.85; H   _1 -0.44; 
@             H   _2 -0.44; H   _1 -0.44; H   _2 -0.44; H      -0.44; 
 -----------------------------------------------------------------------------
  15  Screening settings (-IFTHRS, JTDIIS, DIFDEN, times)  -13   15    T  2.75D+01  2.75D+01
@ 15  -434.228360130       3.75D-06  -1.84D-11    16  11   3   2
      Virial theorem: -V/T =      2.002428
@    MULPOP   C       1.58; C   _1  0.23; C   _2  0.23; C   _1  0.54; C   _2  0.54; C       0.28; N       0.50; O   _1 -0.85; O   _2 -0.85; H   _1 -0.44; 
@             H   _2 -0.44; H   _1 -0.44; H   _2 -0.44; H      -0.44; 
 -----------------------------------------------------------------------------
  16  Screening settings (-IFTHRS, JTDIIS, DIFDEN, times)  -13   16    T  2.75D+01  2.75D+01
@ 16  -434.228360130       1.42D-06  -7.96D-12    16  11   3   2
      Virial theorem: -V/T =      2.002428
@    MULPOP   C       1.58; C   _1  0.23; C   _2  0.23; C   _1  0.54; C   _2  0.54; C       0.28; N       0.50; O   _1 -0.85; O   _2 -0.85; H   _1 -0.44; 
@             H   _2 -0.44; H   _1 -0.44; H   _2 -0.44; H      -0.44; 
 -----------------------------------------------------------------------------
  17  Screening settings (-IFTHRS, JTDIIS, DIFDEN, times)  -13   17    T  2.73D+01  2.73D+01
@ 17  -434.228360130       5.41D-07  -2.27D-12    16  11   3   2

@ *** DIIS converged in  17 iterations !
@     Converged SCF energy, gradient:   -434.228360130394    5.41D-07
    - total time used in SIRFCK :              0.00 seconds

 --- Writing SIRIFC interface file

 CPU and wall time for SCF :     471.016     471.214


 ----- Output from SIRIUS MP2 module -----

 Reference: H.J.Aa.Jensen, P.Jorgensen, H.Agren, and J.Olsen,
            J. Chem. Phys. 88, 3834 (1988); 89, 5354 (1988)

 Checking that the closed shell orbitals are canonical Hartree-Fock orbitals

    Number of electrons  :   64
    Closed shell orbitals:   16   11    3    2

 Generating Fock matrix

 Hartree-Fock electronic energy:        -841.586450869605
 Hartree-Fock total      energy:        -434.228360130398

 Hartree-Fock orbital energies, symmetry 1 ( A1 ),   16 occupied SCF orbitals

       -20.61669945   -15.86370285   -11.33082488   -11.28568309   -11.28111912
       -11.27587345    -1.60612990    -1.19913069    -1.07931141    -0.95156166
        -0.83556074    -0.77959839    -0.71139689    -0.65401326    -0.56024351
        -0.48563027     0.02649019     0.04406184     0.06230266     0.10462516
         0.12910574     0.13491803     0.15120424     0.15579854     0.17304341
         0.18059441     0.21355143     0.24883157     0.28522366     0.28831128
         0.31083173     0.32383055     0.34420768     0.35039731     0.36973985
         0.39450343     0.41231554     0.42180650     0.44834254     0.48393403
         0.51043642     0.56043028     0.57886362     0.58777289     0.62929466
         0.64140671     0.65826307     0.67383115     0.72172585     0.72877465
         0.74259678     0.83546489     0.88168484     0.92470046     0.95131281
         0.96339385     1.00445015     1.05224957     1.07275854     1.13315025
         1.27289469     1.35509423     1.37236198     1.45211167     1.49167861
         1.51080640     1.54357629     1.56664622     1.57421065     1.61668235
         1.66752529     1.71168272     1.74818328     1.78120631     1.85924140
         1.93979322     1.94989840     1.99709416     2.01639233     2.11293913
         2.15417981     2.24435889     2.28729880     2.36818941     2.38154867
         2.43925518     2.53555132     2.66087206     2.76651830     2.83308561
         2.87596801     2.95246945     3.03520914     3.12920318     3.26665353
         3.41590722     3.74999413     3.96893806     4.07839868     4.22547457
        19.78621871    20.31808185    20.44286422    20.61769033    23.25755282
        23.35302526    23.42026793    23.79064805    23.89444370    24.10997970
        27.03399884    31.24238774    35.77309294    39.70699956    39.81601800

 Hartree-Fock orbital energies, symmetry 2 ( B1 ),   11 occupied SCF orbitals

       -20.61675229   -11.28571804   -11.27602301    -1.40366439    -1.05699175
        -0.86774468    -0.72831392    -0.66067702    -0.62718561    -0.53379674
        -0.49724434     0.03581868     0.05984315     0.12991206     0.13345160
         0.15336496     0.17401101     0.18317273     0.21339048     0.26223767
         0.28905620     0.31355731     0.33406435     0.35835886     0.36948402
         0.39350919     0.42148531     0.43597065     0.46533946     0.56163130
         0.57769164     0.58628934     0.64751333     0.66773132     0.67688119
         0.69918049     0.75668004     0.76486586     0.82852241     0.84455810
         0.85761778     0.92006814     1.01746110     1.13999096     1.19777792
         1.24501123     1.32798489     1.38911568     1.40328692     1.48471713
         1.56302590     1.58515940     1.61105806     1.63537964     1.67816996
         1.75119017     1.77034191     1.78497989     1.88044614     1.93515729
         1.98840737     2.06884835     2.21338812     2.25346731     2.33674220
         2.34045863     2.38371655     2.51915783     2.55547853     2.80845021
         2.89760422     2.94479435     3.05284874     3.26288289     3.31985162
         3.41117698     3.74328151     3.84009218     4.19797042    20.29208997
        20.47355714    22.88210400    23.33156397    23.38012699    23.93655935
        24.11756670    24.30369211    31.43921306    35.52075062    39.61773746
        40.01889494

 Hartree-Fock orbital energies, symmetry 3 ( B2 ),    3 occupied SCF orbitals

        -0.71261253    -0.54016872    -0.37943003     0.04308511     0.10631926
         0.12209406     0.13872406     0.18533231     0.18874534     0.24263886
         0.31918814     0.33842892     0.37409330     0.44155154     0.53113111
         0.58594085     0.64258195     0.70658737     0.79794227     0.84018291
         0.86862139     0.91522046     0.92465060     0.98000805     1.13954604
         1.27021547     1.28991285     1.44983738     1.47394036     1.60738382
         1.67250953     1.70358143     1.83385636     1.89359271     1.97049844
         2.08050756     2.17455889     2.29392489     2.54258919     2.64722979
         3.66199102     3.78045746    22.53679791    22.68016949    22.82040178
        23.02329747    30.51784732    39.41356990

 Hartree-Fock orbital energies, symmetry 4 ( A2 ),    2 occupied SCF orbitals

        -0.45635738    -0.37111010     0.08441327     0.13097775     0.18572703
         0.29552208     0.41243117     0.48983958     0.54570895     0.65721703
         0.73520871     0.89564381     0.89872186     0.94093462     1.03972854
         1.07978714     1.20989128     1.23124718     1.32297686     1.48025856
         1.67674703     1.68917087     1.86550466     1.99685054     2.12043859
         2.19634640     2.34859296     2.46206595     2.59722565     3.65629501
         3.99714720    22.69075561    22.85619754    39.48845526

    E(LUMO) :     0.02649019   (in symmetry 1)
  - E(HOMO) :    -0.37111010   (in symmetry 4)
  --------------------------
    gap     :     0.39760030

---> (Re)generating AOTWOINT


     ************************************************************************
     ************************** Output from HERINT **************************
     ************************************************************************


 Threshold for neglecting two-electron integrals:  1.00D-12
 HERMIT - Number of two-electron integrals written:   202395347 ( 23.4% )
 HERMIT - Megabytes written:                           3089.599

  Time used in TWOINT     is      38.92 seconds

 2-el. integral transformation level 5: Total CPU and WALL times (sec)     408.188     410.175

 MP2 move   1.002309 electrons to unoccupied HF orbitals


@   Hartree-Fock total energy   :          -434.2283601304
@   + MP2 contribution          :            -1.7291352440
@   = MP2 second order energy   :          -435.9574953744

 Natural orbital occupation numbers, symmetry 1 (irrep A1 )
 Sum =    32.00851339; RHF =    32.00000000; Difference =     0.00851339

         1.99929055     1.99907724     1.99876194     1.99875906     1.99875312
         1.99874982     1.98680776     1.98411454     1.97923017     1.97169455
         1.96868928     1.96777462     1.96534059     1.96207811     1.95493818
         1.94269940     0.04289171     0.04120175     0.02529627     0.02394828
         0.01923171     0.01844530     0.01757731     0.01641257     0.01378729
         0.01266112     0.01167843     0.00984307     0.00856524     0.00781131
         0.00742706     0.00675217     0.00555772     0.00465364     0.00305282
         0.00295386     0.00273807     0.00264430     0.00229359     0.00209403
         0.00183092     0.00167358     0.00165429     0.00132686     0.00122898
         0.00116412     0.00105897     0.00096690     0.00071480     0.00065452
         0.00061219     0.00053411     0.00049908     0.00046244     0.00043985
         0.00041648     0.00041459     0.00038560     0.00037386     0.00035282
         0.00034293     0.00032661     0.00031351     0.00029513     0.00027079
         0.00026416     0.00022636     0.00022115     0.00020905     0.00019752
         0.00018918     0.00018581     0.00017666     0.00017290     0.00016523
         0.00016111     0.00015486     0.00015051     0.00013951     0.00013404
         0.00012812     0.00012492     0.00012215     0.00011102     0.00010415
         0.00009419     0.00007883     0.00007217     0.00005995     0.00005540
         0.00005279     0.00003938     0.00003533     0.00002966     0.00002108
         0.00001706     0.00001435     0.00001328     0.00001208     0.00000953
         0.00000883     0.00000866     0.00000748     0.00000350     0.00000321
         0.00000211     0.00000112     0.00000059     0.00000037     0.00000020
         0.00000015    -0.00000000    -0.00000010    -0.00000051    -0.00005716

 Natural orbital occupation numbers, symmetry 2 (irrep B1 )
 Sum =    21.95285003; RHF =    22.00000000; Difference =    -0.04714997

         1.99929045     1.99875747     1.99875123     1.98407538     1.98003416
         1.97268370     1.96207022     1.96024539     1.95471674     1.95416192
         1.94630713     0.03784689     0.02539266     0.02390635     0.01913442
         0.01659409     0.01592556     0.01537202     0.01134190     0.01057539
         0.00909456     0.00766059     0.00597342     0.00538305     0.00520258
         0.00397692     0.00312358     0.00273306     0.00237716     0.00213251
         0.00169726     0.00162696     0.00152599     0.00132263     0.00121710
         0.00103715     0.00098470     0.00070450     0.00063966     0.00056936
         0.00048775     0.00044113     0.00042223     0.00037082     0.00035745
         0.00033341     0.00030593     0.00029317     0.00026977     0.00025656
         0.00024350     0.00021220     0.00019724     0.00018737     0.00018250
         0.00017747     0.00017088     0.00016863     0.00016055     0.00015283
         0.00014421     0.00013429     0.00013060     0.00012583     0.00011906
         0.00011540     0.00009448     0.00008837     0.00007073     0.00005231
         0.00004623     0.00003667     0.00003053     0.00003008     0.00002268
         0.00001549     0.00001396     0.00001131     0.00001071     0.00000840
         0.00000470     0.00000383     0.00000177     0.00000124     0.00000062
         0.00000032     0.00000014    -0.00000001    -0.00000019    -0.00000068
        -0.00002026

 Natural orbital occupation numbers, symmetry 3 (irrep B2 )
 Sum =     6.07777688; RHF =     6.00000000; Difference =     0.07777688

         1.94981620     1.94455975     1.90897617     0.10034009     0.06901917
         0.02975744     0.01084449     0.01030466     0.00875379     0.00790468
         0.00617347     0.00526665     0.00439429     0.00391308     0.00343938
         0.00307976     0.00162338     0.00144686     0.00098021     0.00088690
         0.00087308     0.00066397     0.00058350     0.00049339     0.00046974
         0.00042287     0.00033674     0.00028961     0.00024673     0.00022835
         0.00019994     0.00019618     0.00018984     0.00017711     0.00015359
         0.00013056     0.00012039     0.00011106     0.00009697     0.00008315
         0.00008003     0.00006475     0.00003800     0.00002136     0.00001059
         0.00000845     0.00000528     0.00000121

 Natural orbital occupation numbers, symmetry 4 (irrep A2 )
 Sum =     3.96085970; RHF =     4.00000000; Difference =    -0.03914030

         1.91583357     1.90867416     0.06692853     0.01429649     0.01043087
         0.00935323     0.00787982     0.00569941     0.00510257     0.00407605
         0.00360475     0.00149947     0.00119191     0.00093933     0.00077784
         0.00072637     0.00067251     0.00056495     0.00040699     0.00037187
         0.00033575     0.00029571     0.00022236     0.00019693     0.00016835
         0.00013329     0.00011705     0.00010359     0.00009329     0.00006987
         0.00004881     0.00002080     0.00001771     0.00000552

 Time used for MP2 natural orbitals :     439.734 CPU seconds,     441.746 wall seconds.

 CPU and wall time for MP2 :     439.734     441.746


        SIRIUS MCSCF optimization (SIROPT)
 ================================================


 Fock matrix screening setting for SIRCNO: IFTHRS =    9


 ----- Output from SIRIUS CI module (CICTL) -----




 2-el. integral transformation level 0: Total CPU and WALL times (sec)     100.625     100.728


 --- SIRCI.CIST1: plus combination of all degenerate
                 configurations is used as start vectors.


 (CIST1) 18 lowest diagonal elements:

 Element no. Config.no.    Active energy      Total energy

         1 :          1    -17.0149588098   -433.9949444829
         2 :         22    -16.8779115975   -433.8578972706
         3 :         28    -16.7547858511   -433.7347715241
         4 :          6    -16.7428115712   -433.7227972443
         5 :          5    -16.7315870330   -433.7115727061
         6 :          3    -16.6796151865   -433.6596008595
         7 :         24    -16.6407175713   -433.6207032444
         8 :          7    -16.6290634714   -433.6090491444
         9 :          2    -16.6187445442   -433.5987302173
        10 :         23    -16.5975335545   -433.5775192276
        11 :         25    -16.5717774026   -433.5517630757
        12 :         19    -16.5048424260   -433.4848280990
        13 :         29    -16.4580611204   -433.4380467935
        14 :         12    -16.4516739198   -433.4316595928
        15 :         11    -16.4265617064   -433.4065473794
        16 :         27    -16.3182366888   -433.2982223618
        17 :         13    -16.3065464026   -433.2865320756
        18 :         26    -16.2768828136   -433.2568684867


 Convergence threshold for CI optimization :     0.00000500



 *** Reached maximum number of CI iterations:    3
              1 CI roots are not converged.


@ Final CI energies and residuals in symmetry 1 (irrep A1 )
@    1     -434.032264541370978       8.18D-03
@    2     -433.872918088729762       5.96D-03
@    3     -433.804984326322312       3.96D-02
@    4     -433.722731017842818       7.06D-02
@    5     -433.661103203654875       7.80D-02
@    6     -433.652803052387412       8.12D-02

   --- OUTPUT FROM SIRCNO     Keyword = FD+NO 


 Occupations of CAS natural orbitals:

 Symmetry  1 ( irrep A1  in C2v )

   1.999992763

 Symmetry  2 ( irrep B1  in C2v )

   1.999998219

 Symmetry  3 ( irrep B2  in C2v )

   1.007153667   0.993055562

 Symmetry  4 ( irrep A2  in C2v )

   1.991138050   1.964816978   0.043844762


 --- MACRO ITERATION  1 ---
 --------------------------

 2-el. integral transformation level 3: Total CPU and WALL times (sec)     101.328     101.363

 Fock matrix screening setting for this macro iteration: 10^( -9)

 Total MCSCF energy       :          -433.872918089469465  (MACRO    1)

 - Nuclear repulsion      :           407.358090739206716
 - Inactive energy        :          -824.338076413645240
 - Active energy          :           -16.892932415030927

 Norm of total gradient   :             1.388108846028
 -    of CI gradient      :             0.011918214372
 -    of orbital gradient :             1.388057680570
      Virial theorem: -V/T =      1.995294
@    MULPOP   C       1.60; C   _1  0.44; C   _2  0.44; C   _1  0.56; C   _2  0.56; C       0.62; N       0.04; O   _1 -0.94; O   _2 -0.94; H   _1 -0.49; 
@             H   _2 -0.49; H   _1 -0.47; H   _2 -0.47; H      -0.47; 

 (SIRNEO) iteration (  1,  3)
 Micro iteration termination criterion met, EVAL(ISTATE+1) = -7.33D-03

   --- OUTPUT FROM SIRCNO     Keyword = FD+NO 


 Occupations of CAS natural orbitals:

 Symmetry  1 ( irrep A1  in C2v )

   1.999969420

 Symmetry  2 ( irrep B1  in C2v )

   1.999968529

 Symmetry  3 ( irrep B2  in C2v )

   1.104764613   0.903926922

 Symmetry  4 ( irrep A2  in C2v )

   1.985358808   1.868569010   0.137442697


 --- MACRO ITERATION  2 ---
 --------------------------

 2-el. integral transformation level 3: Total CPU and WALL times (sec)     101.219     101.262

 Fock matrix screening setting for this macro iteration: 10^( -9)

 Total MCSCF energy       :          -434.034910921223286  (MACRO    2)

 - Nuclear repulsion      :           407.358090739206716
 - Inactive energy        :          -824.167545661638087
 - Active energy          :           -17.225455998791890

 Norm of total gradient   :             0.531015104165
 -    of CI gradient      :             0.108813962498
 -    of orbital gradient :             0.519746632906
      Virial theorem: -V/T =      2.000448
@    MULPOP   C       1.26; C   _1  0.47; C   _2  0.47; C   _1  0.50; C   _2  0.50; C       0.41; N       0.53; O   _1 -0.92; O   _2 -0.92; H   _1 -0.46; 
@             H   _2 -0.46; H   _1 -0.46; H   _2 -0.46; H      -0.47; 

 Residual norm when dim(red L) =  11
 NEO root     CSF        orbital          total
    1     0.03982898     0.07146370     0.08181325 converged

 (NEONEX) NEO auxiliary root no.  1 is converged.

 (SIRNEO) iteration (  2,  7)
 Micro iteration termination criterion met, EVAL(ISTATE+1) = -2.80D-03

   --- OUTPUT FROM SIRCNO     Keyword = FD+NO 


 Occupations of CAS natural orbitals:

 Symmetry  1 ( irrep A1  in C2v )

   1.999899939

 Symmetry  2 ( irrep B1  in C2v )

   1.999978064

 Symmetry  3 ( irrep B2  in C2v )

   1.404351792   0.601457272

 Symmetry  4 ( irrep A2  in C2v )

   1.993444033   1.567264453   0.433604447


 --- MACRO ITERATION  3 ---
 --------------------------

 2-el. integral transformation level 3: Total CPU and WALL times (sec)     100.422     100.497

 Fock matrix screening setting for this macro iteration: 10^( -9)

 Total MCSCF energy       :          -434.036984200219081  (MACRO    3)

 - Nuclear repulsion      :           407.358090739206716
 - Inactive energy        :          -824.245778238816342
 - Active energy          :           -17.149296700609447

 Norm of total gradient   :             0.292034889572
 -    of CI gradient      :             0.124609941314
 -    of orbital gradient :             0.264115011412
      Virial theorem: -V/T =      2.001438
@    MULPOP   C       1.54; C   _1  0.34; C   _2  0.34; C   _1  0.50; C   _2  0.50; C       0.31; N       0.50; O   _1 -0.88; O   _2 -0.88; H   _1 -0.46; 
@             H   _2 -0.46; H   _1 -0.45; H   _2 -0.45; H      -0.45; 

 (SIRSTP) Energy difference;
 actual, predicted and ratio:  -0.002073278995795  -0.035177887581838    0.058937

 (SIRSTP) step is too large -- backstep

   --- OUTPUT FROM SIRCNO     Keyword = FD+NO 


 Occupations of CAS natural orbitals:

 Symmetry  1 ( irrep A1  in C2v )

   1.999927304

 Symmetry  2 ( irrep B1  in C2v )

   1.999996999

 Symmetry  3 ( irrep B2  in C2v )

   1.297437460   0.709392373

 Symmetry  4 ( irrep A2  in C2v )

   1.991201870   1.674403123   0.327640870


 Optimization control: Step was too large, we backstep


 --- MACRO ITERATION  3 BACKSTEP NO.  1 ---

 2-el. integral transformation level 3: Total CPU and WALL times (sec)     100.531     100.525

 Fock matrix screening setting for this macro iteration: 10^( -9)

 Total MCSCF energy       :          -434.050557262031134  (MACRO    3)

 - Nuclear repulsion      :           407.358090739206716
 - Inactive energy        :          -824.225976652885265
 - Active energy          :           -17.182671348352578

 Norm of total gradient   :             0.280610205830
 -    of CI gradient      :             0.086415205363
 -    of orbital gradient :             0.266972844870
      Virial theorem: -V/T =      2.001092
@    MULPOP   C       1.44; C   _1  0.38; C   _2  0.38; C   _1  0.50; C   _2  0.50; C       0.35; N       0.51; O   _1 -0.89; O   _2 -0.89; H   _1 -0.46; 
@             H   _2 -0.46; H   _1 -0.45; H   _2 -0.45; H      -0.46; 

 Residual norm when dim(red L) =   9
 NEO root     CSF        orbital          total
    2     0.03984827     0.02478717     0.04692854 converged

 (NEONEX) NEO vector is converged.

   --- OUTPUT FROM SIRCNO     Keyword = FD+NO 


 Occupations of CAS natural orbitals:

 Symmetry  1 ( irrep A1  in C2v )

   1.999820656

 Symmetry  2 ( irrep B1  in C2v )

   1.999969387

 Symmetry  3 ( irrep B2  in C2v )

   1.577669031   0.427117845

 Symmetry  4 ( irrep A2  in C2v )

   1.993527041   1.409920323   0.591975717


 --- MACRO ITERATION  4 ---
 --------------------------

 2-el. integral transformation level 3: Total CPU and WALL times (sec)     101.109     101.142

 Fock matrix screening setting for this macro iteration: 10^( -9)

 Total MCSCF energy       :          -434.050095923282299  (MACRO    4)

 - Nuclear repulsion      :           407.358090739206716
 - Inactive energy        :          -824.231876582376344
 - Active energy          :           -17.176310080112653

 Norm of total gradient   :             0.095290974406
 -    of CI gradient      :             0.042688623272
 -    of orbital gradient :             0.085194197258
      Virial theorem: -V/T =      2.001346
@    MULPOP   C       1.65; C   _1  0.24; C   _2  0.24; C   _1  0.51; C   _2  0.51; C       0.32; N       0.52; O   _1 -0.89; O   _2 -0.89; H   _1 -0.44; 
@             H   _2 -0.44; H   _1 -0.44; H   _2 -0.44; H      -0.42; 

 (SIRSTP) Energy difference;
 actual, predicted and ratio:   0.000461338748835  -0.002853995637588   -0.161647

 (SIRSTP) step is too large -- backstep

   --- OUTPUT FROM SIRCNO     Keyword = FD+NO 


 Occupations of CAS natural orbitals:

 Symmetry  1 ( irrep A1  in C2v )

   1.999857477

 Symmetry  2 ( irrep B1  in C2v )

   1.999988178

 Symmetry  3 ( irrep B2  in C2v )

   1.486842945   0.518637834

 Symmetry  4 ( irrep A2  in C2v )

   1.992717880   1.496945739   0.505009947


 Optimization control: Step was too large, we backstep


 --- MACRO ITERATION  4 BACKSTEP NO.  1 ---

 2-el. integral transformation level 3: Total CPU and WALL times (sec)     100.781     100.768

 Fock matrix screening setting for this macro iteration: 10^( -9)

 Total MCSCF energy       :          -434.052201124089095  (MACRO    4)

 - Nuclear repulsion      :           407.358090739206716
 - Inactive energy        :          -824.231069966737095
 - Active energy          :           -17.179221896558730

 Norm of total gradient   :             0.091911418129
 -    of CI gradient      :             0.042531252393
 -    of orbital gradient :             0.081478839905
      Virial theorem: -V/T =      2.001286
@    MULPOP   C       1.58; C   _1  0.28; C   _2  0.28; C   _1  0.51; C   _2  0.51; C       0.33; N       0.51; O   _1 -0.89; O   _2 -0.89; H   _1 -0.45; 
@             H   _2 -0.45; H   _1 -0.44; H   _2 -0.44; H      -0.43; 

 Residual norm when dim(red L) =  10
 NEO root     CSF        orbital          total
    1     0.07355266     0.04009744     0.08377230 converged

 (NEONEX) NEO auxiliary root no.  1 is converged.

 (SIRNEO) iteration (  4, 14)
 Micro iteration termination criterion met, EVAL(ISTATE+1) = -4.45D-03

   --- OUTPUT FROM SIRCNO     Keyword = FD+NO 


 Occupations of CAS natural orbitals:

 Symmetry  1 ( irrep A1  in C2v )

   1.999784790

 Symmetry  2 ( irrep B1  in C2v )

   1.999989964

 Symmetry  3 ( irrep B2  in C2v )

   1.644145436   0.363625507

 Symmetry  4 ( irrep A2  in C2v )

   1.991901978   1.330599093   0.669953232


 --- MACRO ITERATION  5 ---
 --------------------------

 2-el. integral transformation level 3: Total CPU and WALL times (sec)     100.734     100.774

 Fock matrix screening setting for this macro iteration: 10^( -9)

 Total MCSCF energy       :          -434.054882790388660  (MACRO    5)

 - Nuclear repulsion      :           407.358090739206716
 - Inactive energy        :          -824.143357802183914
 - Active energy          :           -17.269615727411434

 Norm of total gradient   :             0.028350736579
 -    of CI gradient      :             0.014503227435
 -    of orbital gradient :             0.024360226981
      Virial theorem: -V/T =      2.001320
@    MULPOP   C       1.68; C   _1  0.21; C   _2  0.21; C   _1  0.51; C   _2  0.51; C       0.34; N       0.49; O   _1 -0.88; O   _2 -0.88; H   _1 -0.44; 
@             H   _2 -0.44; H   _1 -0.44; H   _2 -0.44; H      -0.43; 

 Residual norm when dim(red L) =  12
 NEO root     CSF        orbital          total
    1     0.03469405     0.04330708     0.05549036 converged

 (NEONEX) NEO auxiliary root no.  1 is converged.

 Residual norm when dim(red L) =  22
 NEO root     CSF        orbital          total
    2     0.00312836     0.00144833     0.00344736 converged

 (NEONEX) NEO vector is converged.

   --- OUTPUT FROM SIRCNO     Keyword = FD+NO 


 Occupations of CAS natural orbitals:

 Symmetry  1 ( irrep A1  in C2v )

   1.999841405

 Symmetry  2 ( irrep B1  in C2v )

   1.999998370

 Symmetry  3 ( irrep B2  in C2v )

   1.569818553   0.431302375

 Symmetry  4 ( irrep A2  in C2v )

   1.998936619   1.336814955   0.663287722


 --- MACRO ITERATION  6 ---
 --------------------------

 2-el. integral transformation level 3: Total CPU and WALL times (sec)     100.312     100.364

 Fock matrix screening setting for this macro iteration: 10^( -9)

 Total MCSCF energy       :          -434.059596644352609  (MACRO    6)

 - Nuclear repulsion      :           407.358090739206716
 - Inactive energy        :          -823.820601945367798
 - Active energy          :           -17.597085438191524

 Norm of total gradient   :             0.033105688248
 -    of CI gradient      :             0.020159590890
 -    of orbital gradient :             0.026259807492
      Virial theorem: -V/T =      2.001269
@    MULPOP   C       1.66; C   _1  0.21; C   _2  0.21; C   _1  0.52; C   _2  0.52; C       0.33; N       0.52; O   _1 -0.87; O   _2 -0.87; H   _1 -0.45; 
@             H   _2 -0.45; H   _1 -0.44; H   _2 -0.44; H      -0.43; 

 Residual norm when dim(red L) =  10
 NEO root     CSF        orbital          total
    1     0.03218404     0.04135278     0.05240100 converged

 (NEONEX) NEO auxiliary root no.  1 is converged.

 Residual norm when dim(red L) =  16
 NEO root     CSF        orbital          total
    2     0.00429904     0.00271524     0.00508471 converged

 (NEONEX) NEO vector is converged.

   --- OUTPUT FROM SIRCNO     Keyword = FD+NO 


 Occupations of CAS natural orbitals:

 Symmetry  1 ( irrep A1  in C2v )

   1.999997769

 Symmetry  2 ( irrep B1  in C2v )

   1.999999329

 Symmetry  3 ( irrep B2  in C2v )

   1.422880755   0.577137138

 Symmetry  4 ( irrep A2  in C2v )

   1.999934864   1.442965648   0.557084497


 --- MACRO ITERATION  7 ---
 --------------------------

 2-el. integral transformation level 3: Total CPU and WALL times (sec)     102.391     102.448

 Fock matrix screening setting for this macro iteration: 10^( -9)

 Total MCSCF energy       :          -434.059131930992237  (MACRO    7)

 - Nuclear repulsion      :           407.358090739206716
 - Inactive energy        :          -823.683113376130223
 - Active energy          :           -17.734109294068755

 Norm of total gradient   :             0.032270584484
 -    of CI gradient      :             0.022443602314
 -    of orbital gradient :             0.023187827370
      Virial theorem: -V/T =      2.001131
@    MULPOP   C       1.65; C   _1  0.22; C   _2  0.22; C   _1  0.52; C   _2  0.52; C       0.31; N       0.52; O   _1 -0.85; O   _2 -0.85; H   _1 -0.45; 
@             H   _2 -0.45; H   _1 -0.44; H   _2 -0.44; H      -0.45; 

 (SIRSTP) Energy difference;
 actual, predicted and ratio:   0.000464713360373  -0.001354904151497   -0.342986

 (SIRSTP) step is too large -- backstep

   --- OUTPUT FROM SIRCNO     Keyword = FD+NO 


 Occupations of CAS natural orbitals:

 Symmetry  1 ( irrep A1  in C2v )

   1.999980723

 Symmetry  2 ( irrep B1  in C2v )

   1.999999638

 Symmetry  3 ( irrep B2  in C2v )

   1.428699826   0.571410200

 Symmetry  4 ( irrep A2  in C2v )

   1.999852589   1.446906561   0.553150462


 Optimization control: Step was too large, we backstep


 --- MACRO ITERATION  7 BACKSTEP NO.  1 ---

 2-el. integral transformation level 3: Total CPU and WALL times (sec)     100.594     100.607

 Fock matrix screening setting for this macro iteration: 10^( -9)

 Total MCSCF energy       :          -434.059935737950411  (MACRO    7)

 - Nuclear repulsion      :           407.358090739206716
 - Inactive energy        :          -823.732669445801321
 - Active energy          :           -17.685357031355817

 Norm of total gradient   :             0.025991700749
 -    of CI gradient      :             0.013924787653
 -    of orbital gradient :             0.021946954154
      Virial theorem: -V/T =      2.001194
@    MULPOP   C       1.63; C   _1  0.22; C   _2  0.22; C   _1  0.52; C   _2  0.52; C       0.32; N       0.53; O   _1 -0.86; O   _2 -0.86; H   _1 -0.45; 
@             H   _2 -0.45; H   _1 -0.44; H   _2 -0.44; H      -0.44; 

 (SIRSTP) Energy difference;
[...]
      ----------------------------------------------------------------
         1    5.64344D+01  4.96D+01  2.69D+01  1.59D+03    1.16800D-01

 ** RSPCTL MICROITERATION NUMBER   10

 *** INFO, negative eigenvalues in reduced matrix. Symmetry  1,  triplet       F Dimension of reduced matrix =    22

 GP * SOLUTION vector at frequency     0.11680 a.u.
 after   11 linear transformations is      2.87801634D+04
 INERTIA (POS,ZER,NEG) of reduced matrix is   21    0    1
 Determinant of reduced matrix is -4.31 * 10 **-21.0

       No.  Residual tot.,    conf., and orb.    Bnorm      Frequency 
      ----------------------------------------------------------------
         1    8.01673D+01  2.85D+01  7.49D+01  4.00D+03    1.16800D-01

 ** RSPCTL MICROITERATION NUMBER   11

 *** INFO, negative eigenvalues in reduced matrix. Symmetry  1,  triplet       F Dimension of reduced matrix =    24

 GP * SOLUTION vector at frequency     0.11680 a.u.
 after   12 linear transformations is      3.43907602D+04
 INERTIA (POS,ZER,NEG) of reduced matrix is   23    0    1
 Determinant of reduced matrix is -1.46 * 10 **-24.0

       No.  Residual tot.,    conf., and orb.    Bnorm      Frequency 
      ----------------------------------------------------------------
         1    7.00473D+01  4.04D+01  5.72D+01  5.64D+03    1.16800D-01

 ** RSPCTL MICROITERATION NUMBER   12

 *** INFO, negative eigenvalues in reduced matrix. Symmetry  1,  triplet       F Dimension of reduced matrix =    26

 GP * SOLUTION vector at frequency     0.11680 a.u.
 after   13 linear transformations is      3.71042234D+04
 INERTIA (POS,ZER,NEG) of reduced matrix is   25    0    1
 Determinant of reduced matrix is -6.93 * 10 **-27.0

       No.  Residual tot.,    conf., and orb.    Bnorm      Frequency 
      ----------------------------------------------------------------
         1    5.86138D+01  4.73D+01  3.46D+01  6.59D+03    1.16800D-01

 ** RSPCTL MICROITERATION NUMBER   13

 *** INFO, negative eigenvalues in reduced matrix. Symmetry  1,  triplet       F Dimension of reduced matrix =    28

 GP * SOLUTION vector at frequency     0.11680 a.u.
 after   14 linear transformations is      4.03858866D+04
 INERTIA (POS,ZER,NEG) of reduced matrix is   27    0    1
 Determinant of reduced matrix is -1.84 * 10 **-27.0

       No.  Residual tot.,    conf., and orb.    Bnorm      Frequency 
      ----------------------------------------------------------------
         1    4.43455D+01  2.15D+01  3.88D+01  7.55D+03    1.16800D-01

 ** RSPCTL MICROITERATION NUMBER   14

 *** INFO, negative eigenvalues in reduced matrix. Symmetry  1,  triplet       F Dimension of reduced matrix =    30

 GP * SOLUTION vector at frequency     0.11680 a.u.
 after   15 linear transformations is      4.23892447D+04
 INERTIA (POS,ZER,NEG) of reduced matrix is   29    0    1
 Determinant of reduced matrix is -2.76 * 10 **-31.0

       No.  Residual tot.,    conf., and orb.    Bnorm      Frequency 
      ----------------------------------------------------------------
         1    4.78427D+01  2.72D+01  3.93D+01  8.09D+03    1.16800D-01

 ** RSPCTL MICROITERATION NUMBER   15

 *** INFO, negative eigenvalues in reduced matrix. Symmetry  1,  triplet       F Dimension of reduced matrix =    32

 GP * SOLUTION vector at frequency     0.11680 a.u.
 after   16 linear transformations is      4.55864564D+04
 INERTIA (POS,ZER,NEG) of reduced matrix is   31    0    1
 Determinant of reduced matrix is -4.64 * 10 **-34.0

       No.  Residual tot.,    conf., and orb.    Bnorm      Frequency 
      ----------------------------------------------------------------
         1    7.75232D+01  4.17D+01  6.53D+01  8.79D+03    1.16800D-01

 ** RSPCTL MICROITERATION NUMBER   16

 *** INFO, negative eigenvalues in reduced matrix. Symmetry  1,  triplet       F Dimension of reduced matrix =    34

 GP * SOLUTION vector at frequency     0.11680 a.u.
 after   17 linear transformations is      1.07542769D+05
 INERTIA (POS,ZER,NEG) of reduced matrix is   33    0    1
 Determinant of reduced matrix is -1.82 * 10 **-37.0

       No.  Residual tot.,    conf., and orb.    Bnorm      Frequency 
      ----------------------------------------------------------------
         1    8.60542D+02  6.71D+02  5.39D+02  2.62D+04    1.16800D-01

 ** RSPCTL MICROITERATION NUMBER   17

 *** INFO, negative eigenvalues in reduced matrix. Symmetry  1,  triplet       F Dimension of reduced matrix =    36

 GP * SOLUTION vector at frequency     0.11680 a.u.
 after   18 linear transformations is      2.85187781D+04
 INERTIA (POS,ZER,NEG) of reduced matrix is   34    0    2
 Determinant of reduced matrix is  6.40 * 10 **-37.0

       No.  Residual tot.,    conf., and orb.    Bnorm      Frequency 
      ----------------------------------------------------------------
         1    1.32127D+02  3.85D+01  1.26D+02  5.58D+03    1.16800D-01

 ** RSPCTL MICROITERATION NUMBER   18

 *** INFO, negative eigenvalues in reduced matrix. Symmetry  1,  triplet       F Dimension of reduced matrix =    38

 GP * SOLUTION vector at frequency     0.11680 a.u.
 after   19 linear transformations is      3.46743082D+04
 INERTIA (POS,ZER,NEG) of reduced matrix is   36    0    2
 Determinant of reduced matrix is  1.26 * 10 **-39.0

       No.  Residual tot.,    conf., and orb.    Bnorm      Frequency 
      ----------------------------------------------------------------
         1    4.24982D+01  2.72D+01  3.27D+01  6.09D+03    1.16800D-01

 ** RSPCTL MICROITERATION NUMBER   19

 *** INFO, negative eigenvalues in reduced matrix. Symmetry  1,  triplet       F Dimension of reduced matrix =    40

 GP * SOLUTION vector at frequency     0.11680 a.u.
 after   20 linear transformations is      3.50961968D+04
 INERTIA (POS,ZER,NEG) of reduced matrix is   38    0    2
 Determinant of reduced matrix is  5.23 * 10 **-43.0

       No.  Residual tot.,    conf., and orb.    Bnorm      Frequency 
      ----------------------------------------------------------------
         1    2.90543D+01  2.69D+01  1.10D+01  6.05D+03    1.16800D-01

 ** RSPCTL MICROITERATION NUMBER   20

 *** INFO, negative eigenvalues in reduced matrix. Symmetry  1,  triplet       F Dimension of reduced matrix =    42

 GP * SOLUTION vector at frequency     0.11680 a.u.
 after   21 linear transformations is      3.59665079D+04
 INERTIA (POS,ZER,NEG) of reduced matrix is   40    0    2
 Determinant of reduced matrix is  8.01 * 10 **-44.0

       No.  Residual tot.,    conf., and orb.    Bnorm      Frequency 
      ----------------------------------------------------------------
         1    1.71136D+01  1.20D+01  1.22D+01  6.30D+03    1.16800D-01

 ** RSPCTL MICROITERATION NUMBER   21

 *** INFO, negative eigenvalues in reduced matrix. Symmetry  1,  triplet       F Dimension of reduced matrix =    44

 GP * SOLUTION vector at frequency     0.11680 a.u.
 after   22 linear transformations is      3.60883904D+04
 INERTIA (POS,ZER,NEG) of reduced matrix is   42    0    2
 Determinant of reduced matrix is  1.88 * 10 **-47.0

       No.  Residual tot.,    conf., and orb.    Bnorm      Frequency 
      ----------------------------------------------------------------
         1    1.37349D+01  1.23D+01  6.10D+00  6.29D+03    1.16800D-01

 ** RSPCTL MICROITERATION NUMBER   22

 *** INFO, negative eigenvalues in reduced matrix. Symmetry  1,  triplet       F Dimension of reduced matrix =    46

 GP * SOLUTION vector at frequency     0.11680 a.u.
 after   23 linear transformations is      3.62755792D+04
 INERTIA (POS,ZER,NEG) of reduced matrix is   44    0    2
 Determinant of reduced matrix is  8.47 * 10 **-48.0

       No.  Residual tot.,    conf., and orb.    Bnorm      Frequency 
      ----------------------------------------------------------------
         1    7.25964D+00  3.55D+00  6.33D+00  6.32D+03    1.16800D-01

 ** RSPCTL MICROITERATION NUMBER   23

 *** INFO, negative eigenvalues in reduced matrix. Symmetry  1,  triplet       F Dimension of reduced matrix =    48

 GP * SOLUTION vector at frequency     0.11680 a.u.
 after   24 linear transformations is      3.63035387D+04
 INERTIA (POS,ZER,NEG) of reduced matrix is   46    0    2
 Determinant of reduced matrix is  3.62 * 10 **-51.0

       No.  Residual tot.,    conf., and orb.    Bnorm      Frequency 
      ----------------------------------------------------------------
         1    5.30079D+00  4.47D+00  2.85D+00  6.30D+03    1.16800D-01

 *** THE REQUESTED    1 SOLUTION VECTORS CONVERGED

 Convergence of RSP solution vectors, threshold = 1.00D-03
 ---------------------------------------------------------------
 (dimension of paired reduced space:   48)
 RSP solution vector no.    1; norm of residual   8.42D-04

 *** RSPCTL MICROITERATIONS CONVERGED
    YDIPLEN     YDIPLEN      freq1     freq2                Norm
 ---------------------------------------------------------------
                          0.058400  0.058400       6296.15719801
  Time used in CRVEC2     is       2 hours 51 minutes 54 seconds


 ----- CALCULATING CONTRIBUTIONS TO SECOND HYPERPOLARIZABILITY -----


   Contribution                Term         Accumulated
 ------------------------------------------------------
 Na T[4] Nb Nc Nd 14693192.44400753   14693192.44400753
 Na T[3] Nx Nyz -166729299.49873897 -152036107.05473146
 Na X[3] Ny Nz       11555.55302598 -152024551.50170550
 Nx A[3] Ny Nz        3851.85100866 -152020699.65069684
 Na X[2] Nyz     -14012141.83833634 -166032841.48903319
 Nx A[2] Nyz     -13952554.95284913 -179985396.44188231

@ Cubic response function value in a.u. for
@ A operator, symmetry, frequency:   ZDIPLEN    1 -0.058400
@ B operator, symmetry, frequency:   ZDIPLEN    1  0.058400
@ C operator, symmetry, frequency:   ZDIPLEN    1 -0.058400
@ D operator, symmetry, frequency:   ZDIPLEN    1  0.058400

@ << A; B, C, D >>  =  -179985396.44188231



   Contribution                Term         Accumulated
 ------------------------------------------------------
 Na T[4] Nb Nc Nd   186231.71017882     186231.71017882
 Na T[3] Nx Nyz    -179532.54921282       6699.16096600
 Na X[3] Ny Nz      232782.84306888     239482.00403488
 Nx A[3] Ny Nz      193907.31214464     433389.31617952
 Na X[2] Nyz       -161808.88656256     271580.42961695
 Nx A[2] Nyz       -173524.75368104      98055.67593591

@ Cubic response function value in a.u. for
@ A operator, symmetry, frequency:   XDIPLEN    2 -0.058400
@ B operator, symmetry, frequency:   XDIPLEN    2  0.058400
@ C operator, symmetry, frequency:   ZDIPLEN    1 -0.058400
@ D operator, symmetry, frequency:   ZDIPLEN    1  0.058400

@ << A; B, C, D >>  =       98055.67593591



   Contribution                Term         Accumulated
 ------------------------------------------------------
 Na T[4] Nb Nc Nd   -18760.61753500     -18760.61753500
 Na T[3] Nx Nyz       3619.66390812     -15140.95362688
 Na X[3] Ny Nz       46895.24565239      31754.29202551
 Nx A[3] Ny Nz       25985.82923117      57740.12125668
 Na X[2] Nyz           432.82884976      58172.95010644
 Nx A[2] Nyz       -121873.25081548     -63700.30070904

@ Cubic response function value in a.u. for
@ A operator, symmetry, frequency:   YDIPLEN    3 -0.058400
@ B operator, symmetry, frequency:   YDIPLEN    3  0.058400
@ C operator, symmetry, frequency:   ZDIPLEN    1 -0.058400
@ D operator, symmetry, frequency:   ZDIPLEN    1  0.058400

@ << A; B, C, D >>  =      -63700.30070904



   Contribution                Term         Accumulated
 ------------------------------------------------------
 Na T[4] Nb Nc Nd    67463.95423884      67463.95423884
 Na T[3] Nx Nyz   -4187410.55608609   -4119946.60184725
 Na X[3] Ny Nz       91134.02429252   -4028812.57755472
 Nx A[3] Ny Nz       22476.35787884   -4006336.21967588
 Na X[2] Nyz       -910265.57597893   -4916601.79565481
 Nx A[2] Nyz      -1281606.66187295   -6198208.45752775

@ Cubic response function value in a.u. for
@ A operator, symmetry, frequency:   XDIPLEN    2 -0.058400
@ B operator, symmetry, frequency:   ZDIPLEN    1  0.058400
@ C operator, symmetry, frequency:   XDIPLEN    2 -0.058400
@ D operator, symmetry, frequency:   ZDIPLEN    1  0.058400

@ << A; B, C, D >>  =    -6198208.45752775



   Contribution                Term         Accumulated
 ------------------------------------------------------
 Na T[4] Nb Nc Nd   -15324.69732736     -15324.69732736
 Na T[3] Nx Nyz     -97581.35310513    -112906.05043249
 Na X[3] Ny Nz       26333.58580783     -86572.46462466
 Nx A[3] Ny Nz        6709.51292179     -79862.95170287
 Na X[2] Nyz       -953099.82793710   -1032962.77963997
 Nx A[2] Nyz      -1011738.42709022   -2044701.20673019

@ Cubic response function value in a.u. for
@ A operator, symmetry, frequency:   YDIPLEN    3 -0.058400
@ B operator, symmetry, frequency:   ZDIPLEN    1  0.058400
@ C operator, symmetry, frequency:   YDIPLEN    3 -0.058400
@ D operator, symmetry, frequency:   ZDIPLEN    1  0.058400

@ << A; B, C, D >>  =    -2044701.20673019



   Contribution                Term         Accumulated
 ------------------------------------------------------
 Na T[4] Nb Nc Nd    79191.06993934      79191.06993934
 Na T[3] Nx Nyz   -5654130.99441604   -5574939.92447670
 Na X[3] Ny Nz        5114.00302694   -5569825.92144976
 Nx A[3] Ny Nz        9606.31789431   -5560219.60355545
 Na X[2] Nyz       -163018.45926790   -5723238.06282335
 Nx A[2] Nyz       -475837.75474629   -6199075.81756964

@ Cubic response function value in a.u. for
@ A operator, symmetry, frequency:   ZDIPLEN    1 -0.058400
@ B operator, symmetry, frequency:   XDIPLEN    2  0.058400
@ C operator, symmetry, frequency:   ZDIPLEN    1 -0.058400
@ D operator, symmetry, frequency:   XDIPLEN    2  0.058400

@ << A; B, C, D >>  =    -6199075.81756964



   Contribution                Term         Accumulated
 ------------------------------------------------------
 Na T[4] Nb Nc Nd   270354.96407358     270354.96407358
 Na T[3] Nx Nyz    -643952.20201028    -373597.23793670
 Na X[3] Ny Nz      277039.04217608     -96558.19576062
 Nx A[3] Ny Nz       92346.34739203      -4211.84836860
 Na X[2] Nyz        -32258.07017784     -36469.91854644
 Nx A[2] Nyz       -173097.93851920    -209567.85706563

@ Cubic response function value in a.u. for
@ A operator, symmetry, frequency:   XDIPLEN    2 -0.058400
@ B operator, symmetry, frequency:   XDIPLEN    2  0.058400
@ C operator, symmetry, frequency:   XDIPLEN    2 -0.058400
@ D operator, symmetry, frequency:   XDIPLEN    2  0.058400

@ << A; B, C, D >>  =     -209567.85706563



   Contribution                Term         Accumulated
 ------------------------------------------------------
 Na T[4] Nb Nc Nd   -11743.74491736     -11743.74491736
 Na T[3] Nx Nyz      -7939.49486509     -19683.23978245
 Na X[3] Ny Nz       23486.08343475       3802.84365230
 Nx A[3] Ny Nz        8179.25198006      11982.09563236
 Na X[2] Nyz        -10185.71735489       1796.37827747
 Nx A[2] Nyz        -21358.98219918     -19562.60392171

@ Cubic response function value in a.u. for
@ A operator, symmetry, frequency:   YDIPLEN    3 -0.058400
@ B operator, symmetry, frequency:   YDIPLEN    3  0.058400
@ C operator, symmetry, frequency:   XDIPLEN    2 -0.058400
@ D operator, symmetry, frequency:   XDIPLEN    2  0.058400

@ << A; B, C, D >>  =      -19562.60392171



   Contribution                Term         Accumulated
 ------------------------------------------------------
 Na T[4] Nb Nc Nd   -11377.92472088     -11377.92472088
 Na T[3] Nx Nyz     -10576.72235232     -21954.64707320
 Na X[3] Ny Nz       22704.79160253        750.14452934
 Nx A[3] Ny Nz        7711.49511915       8461.63964849
 Na X[2] Nyz        -44441.93751996     -35980.29787148
 Nx A[2] Nyz        -55347.88710870     -91328.18498018

@ Cubic response function value in a.u. for
@ A operator, symmetry, frequency:   YDIPLEN    3 -0.058400
@ B operator, symmetry, frequency:   XDIPLEN    2  0.058400
@ C operator, symmetry, frequency:   YDIPLEN    3 -0.058400
@ D operator, symmetry, frequency:   XDIPLEN    2  0.058400

@ << A; B, C, D >>  =      -91328.18498018



   Contribution                Term         Accumulated
 ------------------------------------------------------
 Na T[4] Nb Nc Nd    -3764.24172092      -3764.24172092
 Na T[3] Nx Nyz   -1688619.53371796   -1692383.77543888
 Na X[3] Ny Nz          40.55485096   -1692343.22058792
 Nx A[3] Ny Nz        2081.86729780   -1690261.35329012
 Na X[2] Nyz       -187475.95836693   -1877737.31165705
 Nx A[2] Nyz       -156856.37426398   -2034593.68592103

@ Cubic response function value in a.u. for
@ A operator, symmetry, frequency:   ZDIPLEN    1 -0.058400
@ B operator, symmetry, frequency:   YDIPLEN    3  0.058400
@ C operator, symmetry, frequency:   ZDIPLEN    1 -0.058400
@ D operator, symmetry, frequency:   YDIPLEN    3  0.058400

@ << A; B, C, D >>  =    -2034593.68592103



   Contribution                Term         Accumulated
 ------------------------------------------------------
 Na T[4] Nb Nc Nd    -1133.76734187      -1133.76734187
 Na T[3] Nx Nyz     -44449.66905469     -45583.43639656
 Na X[3] Ny Nz        1668.96860662     -43914.46778994
 Nx A[3] Ny Nz         413.09161723     -43501.37617270
 Na X[2] Nyz        -20064.72152028     -63566.09769298
 Nx A[2] Nyz        -27552.19166381     -91118.28935680

@ Cubic response function value in a.u. for
@ A operator, symmetry, frequency:   XDIPLEN    2 -0.058400
@ B operator, symmetry, frequency:   YDIPLEN    3  0.058400
@ C operator, symmetry, frequency:   XDIPLEN    2 -0.058400
@ D operator, symmetry, frequency:   YDIPLEN    3  0.058400

@ << A; B, C, D >>  =      -91118.28935680



   Contribution                Term         Accumulated
 ------------------------------------------------------
 Na T[4] Nb Nc Nd     -832.00431330       -832.00431330
 Na T[3] Nx Nyz       3205.41580000       2373.41148670
 Na X[3] Ny Nz        2562.82555713       4936.23704383
 Nx A[3] Ny Nz         854.27518571       5790.51222954
 Na X[2] Nyz        -27391.93356610     -21601.42133656
 Nx A[2] Nyz        -27659.66194775     -49261.08328431

@ Cubic response function value in a.u. for
@ A operator, symmetry, frequency:   YDIPLEN    3 -0.058400
@ B operator, symmetry, frequency:   YDIPLEN    3  0.058400
@ C operator, symmetry, frequency:   YDIPLEN    3 -0.058400
@ D operator, symmetry, frequency:   YDIPLEN    3  0.058400

@ << A; B, C, D >>  =      -49261.08328431



  Summary of gamma values for a set of frequencies
 -------------------------------------------------

@ B-freq:  0.058400
@ C-freq: -0.058400
@ D-freq:  0.058400

@ gamma(X;X,X,X)     209567.8571
@ gamma(X;X,Y,Y)      19562.6039
@ gamma(X;Y,Y,X)      19562.6039
@ gamma(X;Y,X,Y)      91118.2894
@ gamma(X;X,Z,Z)     -98055.6759
@ gamma(X;Z,Z,X)     -98055.6759
@ gamma(X;Z,X,Z)    6198208.4575
@ gamma(Y;Y,X,X)      19562.6039
@ gamma(Y;X,X,Y)      19562.6039
@ gamma(Y;X,Y,X)      91328.1850
@ gamma(Y;Y,Y,Y)      49261.0833
@ gamma(Y;Y,Z,Z)      63700.3007
@ gamma(Y;Z,Z,Y)      63700.3007
@ gamma(Y;Z,Y,Z)    2044701.2067
@ gamma(Z;Z,X,X)     -98055.6759
@ gamma(Z;X,X,Z)     -98055.6759
@ gamma(Z;X,Z,X)    6199075.8176
@ gamma(Z;Z,Y,Y)      63700.3007
@ gamma(Z;Y,Y,Z)      63700.3007
@ gamma(Z;Y,Z,Y)    2034593.6859
@ gamma(Z;Z,Z,Z)  179985396.4419

@ Averaged gamma parallel to the applied field is  37155502.046904

  Total CPU  time used in RESPONSE:   7 hours 42 minutes 46 seconds
  Total wall time used in RESPONSE:   7 hours 42 minutes 59 seconds


                   .-------------------------------------------.
                   | End of Dynamic Property Section (RESPONS) |
                   `-------------------------------------------'

  Total CPU  time used in DALTON:  10 hours 41 minutes 23 seconds
  Total wall time used in DALTON:  10 hours 41 minutes 42 seconds

 
     Date and time (Linux)  : Wed Mar  4 00:03:33 2020
     Host name              : Lab2-333-NPs                            
