

     ************************************************************************
     *************** Dalton - An Electronic Structure Program ***************
     ************************************************************************

    This is output from DALTON release Dalton2018.1 (2019)
         ( Web site: http://daltonprogram.org )

   ----------------------------------------------------------------------------

    NOTE:
     
    Dalton is an experimental code for the evaluation of molecular
    properties using (MC)SCF, DFT, CI, and CC wave functions.
    The authors accept no responsibility for the performance of
    the code or for the correctness of the results.
     
    The code (in whole or part) is provided under a licence and
    is not to be reproduced for further distribution without
    the written permission of the authors or their representatives.
     
    See the home page "http://daltonprogram.org" for further information.
     
    If results obtained with this code are published,
    the appropriate citations would be both of:
     
       K. Aidas, C. Angeli, K. L. Bak, V. Bakken, R. Bast,
       L. Boman, O. Christiansen, R. Cimiraglia, S. Coriani,
       P. Dahle, E. K. Dalskov, U. Ekstroem,
       T. Enevoldsen, J. J. Eriksen, P. Ettenhuber, B. Fernandez,
       L. Ferrighi, H. Fliegl, L. Frediani, K. Hald, A. Halkier,
       C. Haettig, H. Heiberg, T. Helgaker, A. C. Hennum,
       H. Hettema, E. Hjertenaes, S. Hoest, I.-M. Hoeyvik,
       M. F. Iozzi, B. Jansik, H. J. Aa. Jensen, D. Jonsson,
       P. Joergensen, J. Kauczor, S. Kirpekar,
       T. Kjaergaard, W. Klopper, S. Knecht, R. Kobayashi, H. Koch,
       J. Kongsted, A. Krapp, K. Kristensen, A. Ligabue,
       O. B. Lutnaes, J. I. Melo, K. V. Mikkelsen, R. H. Myhre,
       C. Neiss, C. B. Nielsen, P. Norman, J. Olsen,
       J. M. H. Olsen, A. Osted, M. J. Packer, F. Pawlowski,
       T. B. Pedersen, P. F. Provasi, S. Reine, Z. Rinkevicius,
       T. A. Ruden, K. Ruud, V. Rybkin, P. Salek, C. C. M. Samson,
       A. Sanchez de Meras, T. Saue, S. P. A. Sauer,
       B. Schimmelpfennig, K. Sneskov, A. H. Steindal,
       K. O. Sylvester-Hvid, P. R. Taylor, A. M. Teale,
       E. I. Tellgren, D. P. Tew, A. J. Thorvaldsen, L. Thoegersen,
       O. Vahtras, M. A. Watson, D. J. D. Wilson, M. Ziolkowski
       and H. Agren,
       "The Dalton quantum chemistry program system",
       WIREs Comput. Mol. Sci. 2014, 4:269–284 (doi: 10.1002/wcms.1172)
     
    and
     
       Dalton, a molecular electronic structure program,
       Release Dalton2018.1 (2019), see http://daltonprogram.org
   ----------------------------------------------------------------------------

    Authors in alphabetical order (major contribution(s) in parenthesis):

  Kestutis Aidas,           Vilnius University,           Lithuania   (QM/MM)
  Celestino Angeli,         University of Ferrara,        Italy       (NEVPT2)
  Keld L. Bak,              UNI-C,                        Denmark     (AOSOPPA, non-adiabatic coupling, magnetic properties)
  Vebjoern Bakken,          University of Oslo,           Norway      (DALTON; geometry optimizer, symmetry detection)
  Radovan Bast,             UiT The Arctic U. of Norway,  Norway      (DALTON installation and execution frameworks)
  Pablo Baudin,             University of Valencia,       Spain       (Cholesky excitation energies)
  Linus Boman,              NTNU,                         Norway      (Cholesky decomposition and subsystems)
  Ove Christiansen,         Aarhus University,            Denmark     (CC module)
  Renzo Cimiraglia,         University of Ferrara,        Italy       (NEVPT2)
  Sonia Coriani,            Technical Univ. of Denmark,   Denmark     (CC module, MCD in RESPONS)
  Janusz Cukras,            University of Trieste,        Italy       (MChD in RESPONS)
  Paal Dahle,               University of Oslo,           Norway      (Parallelization)
  Erik K. Dalskov,          UNI-C,                        Denmark     (SOPPA)
  Thomas Enevoldsen,        Univ. of Southern Denmark,    Denmark     (SOPPA)
  Janus J. Eriksen,         Aarhus University,            Denmark     (Polarizable embedding model, TDA)
  Rasmus Faber,             University of Copenhagen,     Denmark     (Vib.avg. NMR with SOPPA, parallel AO-SOPPA)
  Tobias Fahleson,          KTH Stockholm,                Sweden      (Damped cubic response)
  Berta Fernandez,          U. of Santiago de Compostela, Spain       (doublet spin, ESR in RESPONS)
  Lara Ferrighi,            Aarhus University,            Denmark     (PCM Cubic response)
  Heike Fliegl,             University of Oslo,           Norway      (CCSD(R12))
  Luca Frediani,            UiT The Arctic U. of Norway,  Norway      (PCM)
  Bin Gao,                  UiT The Arctic U. of Norway,  Norway      (Gen1Int library)
  Christof Haettig,         Ruhr-University Bochum,       Germany     (CC module)
  Kasper Hald,              Aarhus University,            Denmark     (CC module)
  Asger Halkier,            Aarhus University,            Denmark     (CC module)
  Frederik Beyer Hansen,    University of Copenhagen,     Denmark     (Parallel AO-SOPPA)
  Erik D. Hedegaard,        Univ. of Southern Denmark,    Denmark     (Polarizable embedding model, QM/MM)
  Hanne Heiberg,            University of Oslo,           Norway      (geometry analysis, selected one-electron integrals)
  Trygve Helgaker,          University of Oslo,           Norway      (DALTON; ABACUS, ERI, DFT modules, London, and much more)
  Alf Christian Hennum,     University of Oslo,           Norway      (Parity violation)
  Hinne Hettema,            University of Auckland,       New Zealand (quadratic response in RESPONS; SIRIUS supersymmetry)
  Eirik Hjertenaes,         NTNU,                         Norway      (Cholesky decomposition)
  Pi A. B. Haase,           University of Copenhagen,     Denmark     (Triplet AO-SOPPA)
  Maria Francesca Iozzi,    University of Oslo,           Norway      (RPA)
  Christoph Jacob           TU Braunschweig               Germany     (Frozen density embedding model)
  Brano Jansik              Technical Univ. of Ostrava    Czech Rep.  (DFT cubic response)
  Hans Joergen Aa. Jensen,  Univ. of Southern Denmark,    Denmark     (DALTON; SIRIUS, RESPONS, ABACUS modules, London, and much more)
  Dan Jonsson,              UiT The Arctic U. of Norway,  Norway      (cubic response in RESPONS module)
  Poul Joergensen,          Aarhus University,            Denmark     (RESPONS, ABACUS, and CC modules)
  Maciej Kaminski,          University of Warsaw,         Poland      (CPPh in RESPONS)
  Joanna Kauczor,           Linkoeping University,        Sweden      (Complex polarization propagator (CPP) module)
  Sheela Kirpekar,          Univ. of Southern Denmark,    Denmark     (Mass-velocity & Darwin integrals)
  Wim Klopper,              KIT Karlsruhe,                Germany     (R12 code in CC, SIRIUS, and ABACUS modules)
  Stefan Knecht,            ETH Zurich,                   Switzerland (Parallel CI and MCSCF)
  Rika Kobayashi,           Australian National Univ.,    Australia   (DIIS in CC, London in MCSCF)
  Henrik Koch,              NTNU,                         Norway      (CC module, Cholesky decomposition)
  Jacob Kongsted,           Univ. of Southern Denmark,    Denmark     (Polarizable embedding model, QM/MM)
  Andrea Ligabue,           University of Modena,         Italy       (CTOCD, AOSOPPA)
  Nanna H. List             Univ. of Southern Denmark,    Denmark     (Polarizable embedding model)
  Ola B. Lutnaes,           University of Oslo,           Norway      (DFT Hessian)
  Juan I. Melo,             University of Buenos Aires,   Argentina   (LRESC, Relativistic Effects on NMR Shieldings)
  Kurt V. Mikkelsen,        University of Copenhagen,     Denmark     (MC-SCRF and QM/MM)
  Rolf H. Myhre,            NTNU,                         Norway      (Subsystems and CC3)
  Christian Neiss,          Univ. Erlangen-Nuernberg,     Germany     (CCSD(R12))
  Christian B. Nielsen,     University of Copenhagen,     Denmark     (QM/MM)
  Patrick Norman,           KTH Stockholm,                Sweden      (Cubic response and complex frequency response in RESPONS)
  Jeppe Olsen,              Aarhus University,            Denmark     (SIRIUS CI/density modules)
  Jogvan Magnus H. Olsen,   Univ. of Southern Denmark,    Denmark     (Polarizable embedding model, QM/MM)
  Anders Osted,             Copenhagen University,        Denmark     (QM/MM)
  Martin J. Packer,         University of Sheffield,      UK          (SOPPA)
  Filip Pawlowski,          Kazimierz Wielki University,  Poland      (CC3)
  Morten N. Pedersen,       Univ. of Southern Denmark,    Denmark     (Polarizable embedding model)
  Thomas B. Pedersen,       University of Oslo,           Norway      (Cholesky decomposition)
  Patricio F. Provasi,      University of Northeastern,   Argentina   (Analysis of coupling constants in localized orbitals)
  Zilvinas Rinkevicius,     KTH Stockholm,                Sweden      (open-shell DFT, ESR)
  Elias Rudberg,            KTH Stockholm,                Sweden      (DFT grid and basis info)
  Torgeir A. Ruden,         University of Oslo,           Norway      (Numerical derivatives in ABACUS)
  Kenneth Ruud,             UiT The Arctic U. of Norway,  Norway      (DALTON; ABACUS magnetic properties and much more)
  Pawel Salek,              KTH Stockholm,                Sweden      (DALTON; DFT code)
  Claire C. M. Samson       University of Karlsruhe       Germany     (Boys localization, r12 integrals in ERI)
  Alfredo Sanchez de Meras, University of Valencia,       Spain       (CC module, Cholesky decomposition)
  Trond Saue,               Paul Sabatier University,     France      (direct Fock matrix construction)
  Stephan P. A. Sauer,      University of Copenhagen,     Denmark     (SOPPA(CCSD), SOPPA prop., AOSOPPA, vibrational g-factors)
  Andre S. P. Gomes,        CNRS/Universite de Lille,     France      (Frozen density embedding model)
  Bernd Schimmelpfennig,    Forschungszentrum Karlsruhe,  Germany     (AMFI module)
  Kristian Sneskov,         Aarhus University,            Denmark     (Polarizable embedding model, QM/MM)
  Arnfinn H. Steindal,      UiT The Arctic U. of Norway,  Norway      (parallel QM/MM, Polarizable embedding model)
  Casper Steinmann,         Univ. of Southern Denmark,    Denmark     (QFIT, Polarizable embedding model)
  K. O. Sylvester-Hvid,     University of Copenhagen,     Denmark     (MC-SCRF)
  Peter R. Taylor,          VLSCI/Univ. of Melbourne,     Australia   (Symmetry handling ABACUS, integral transformation)
  Andrew M. Teale,          University of Nottingham,     England     (DFT-AC, DFT-D)
  David P. Tew,             University of Bristol,        England     (CCSD(R12))
  Olav Vahtras,             KTH Stockholm,                Sweden      (triplet response, spin-orbit, ESR, TDDFT, open-shell DFT)
  Lucas Visscher,           Vrije Universiteit Amsterdam, Netherlands (Frozen density embedding model)
  David J. Wilson,          La Trobe University,          Australia   (DFT Hessian and DFT magnetizabilities)
  Hans Agren,               KTH Stockholm,                Sweden      (SIRIUS module, RESPONS, MC-SCRF solvation model)
 --------------------------------------------------------------------------------

     Date and time (Linux)  : Fri Feb 28 12:21:20 2020
     Host name              : Lab2-333-NPs                            

 * Work memory size             :  1024000000 =  7.629 gigabytes.

 * Directories for basis set searches:
   1) /home/lab333/dalton/build_2018_atlas
   2) /home/lab333/dalton/build_2018_atlas/basis


Compilation information
-----------------------

 Who compiled             | lab333
 Host                     | Lab2-333-NPs
 System                   | Linux-4.4.0-43-Microsoft
 CMake generator          | Unix Makefiles
 Processor                | x86_64
 64-bit integers          | OFF
 MPI                      | OFF
 Fortran compiler         | /usr/bin/gfortran
 Fortran compiler version | GNU Fortran (Ubuntu 7.3.0-27ubuntu1~18.04) 7.3.0
 C compiler               | /usr/bin/gcc
 C compiler version       | gcc (Ubuntu 7.3.0-27ubuntu1~18.04) 7.3.0
 C++ compiler             | /usr/bin/g++
 C++ compiler version     | g++ (Ubuntu 7.3.0-27ubuntu1~18.04) 7.3.0
 BLAS                     | /usr/lib/x86_64-linux-gnu/libf77blas.so;/usr/lib/x
                          | 86_64-linux-gnu/libcblas.so;/usr/lib/x86_64-linux-
                          | gnu/libatlas.so
 LAPACK                   | /usr/lib/x86_64-linux-gnu/libatlas.so;/usr/lib/x86
                          | _64-linux-gnu/atlas/liblapack.so
 Static linking           | OFF
 Last Git revision        | da625bf48c74028e805616daee31bc5d76b3a20d
 Git branch               | (HEAD detached at Dalton2018.1)
 Configuration time       | 2019-01-18 10:20:51.437510


   Content of the .dal input file
 ----------------------------------

**DALTON INPUT
.RUN RESPONSE
.DIRECT
**WAVE FUNCTIONS
.HF
.MP2
.MCSCF
*CONFIGURATION INPUT
.SPIN MULTIPLICITY
1
.SYMMETRY
1
.INACTIVE ORBITALS
15 10 2 0
.CAS SPACE
1 1 2 3
.ELECTRONS
10
*ORBITAL INPUT
.MOSTART
.HUCKEL
*OPTIMIZATION
.DETERMINANTS
.STATE
2
*CI VECTOR
.PLUS COMBINATIONS
**RESPONSE
*CUBIC
.DIPLEN
.BFREQ
1
0.0584
.CFREQ
1
-0.0584
.DFREQ
1
0.0584
**END OF DALTON INPUT


   Content of the .mol file
 ----------------------------

BASIS
aug-cc-pCVDZ
 nitrobenzene
 Generated by the Dalton Input File Plugin for Avogadro
Atomtypes=4 Angstrom Generators=2 X Y
Charge=6.0 Atoms=4
C        0.0000000000            0.0000000000           -0.0265759623
C       -1.2190534920            0.0000000000           -0.6979856948
C       -1.2105095870            0.0000000000           -2.0897394457
C        0.0000000000            0.0000000000           -2.7841484631
Charge=7.0 Atoms=1
N        0.0000000000            0.0000000000            1.4882625029333334
Charge=8.0 Atoms=1
O       1.0847503743            0.0            2.056911313133334
Charge=1.0 Atoms=3
H       -2.1410602955            0.0000000000           -0.1327964319
H       -2.1492827751            0.0000000000           -2.6311811056
H        0.0000000000            0.0000000000           -3.8683953478


       *******************************************************************
       *********** Output from DALTON general input processing ***********
       *******************************************************************

 --------------------------------------------------------------------------------
   Overall default print level:    0
   Print level for DALTON.STAT:    1

    AO-direct calculation (in sections where implemented)
    HERMIT 1- and 2-electron integral sections will be executed
    "Old" integral transformation used (limited to max 255 basis functions)
    Wave function sections will be executed (SIRIUS module)
    Dynamic molecular response properties section will be executed (RESPONSE module)
 --------------------------------------------------------------------------------


   ****************************************************************************
   *************** Output of molecule and basis set information ***************
   ****************************************************************************


    The two title cards from your ".mol" input:
    ------------------------------------------------------------------------
 1:  nitrobenzene                                                           
 2:  Generated by the Dalton Input File Plugin for Avogadro                 
    ------------------------------------------------------------------------

  Coordinates are entered in Angstrom and converted to atomic units.
          - Conversion factor : 1 bohr = 0.52917721 A

  Atomic type no.    1
  --------------------
  Nuclear charge:   6.00000
  Number of symmetry independent centers:    4
  Number of basis sets to read;    2
  Basis set file used for this atomic type with Z =   6 :
     "/home/lab333/dalton/build_2018_atlas/basis/aug-cc-pCVDZ"

  Atomic type no.    2
  --------------------
  Nuclear charge:   7.00000
  Number of symmetry independent centers:    1
  Number of basis sets to read;    2
  Basis set file used for this atomic type with Z =   7 :
     "/home/lab333/dalton/build_2018_atlas/basis/aug-cc-pCVDZ"

  Atomic type no.    3
  --------------------
  Nuclear charge:   8.00000
  Number of symmetry independent centers:    1
  Number of basis sets to read;    2
  Basis set file used for this atomic type with Z =   8 :
     "/home/lab333/dalton/build_2018_atlas/basis/aug-cc-pCVDZ"

  Atomic type no.    4
  --------------------
  Nuclear charge:   1.00000
  Number of symmetry independent centers:    3
  Number of basis sets to read;    2
  Basis set file used for this atomic type with Z =   1 :
     "/home/lab333/dalton/build_2018_atlas/basis/aug-cc-pCVDZ"


                         SYMGRP: Point group information
                         -------------------------------

@    Point group: C2v

@  * The irrep name for each symmetry:    1: A1     2: B1     3: B2     4: A2 

   * The point group was generated by:

      Reflection in the yz-plane
      Reflection in the xz-plane

   * Group multiplication table

        |  E   C2z  Oxz  Oyz
   -----+--------------------
     E  |  E   C2z  Oxz  Oyz
    C2z | C2z   E   Oyz  Oxz
    Oxz | Oxz  Oyz   E   C2z
    Oyz | Oyz  Oxz  C2z   E 

   * Character table

        |  E   C2z  Oxz  Oyz
   -----+--------------------
    A1  |   1    1    1    1
    B1  |   1   -1    1   -1
    B2  |   1   -1   -1    1
    A2  |   1    1   -1   -1

   * Direct product table

        | A1   B1   B2   A2 
   -----+--------------------
    A1  | A1   B1   B2   A2 
    B1  | B1   A1   A2   B2 
    B2  | B2   A2   A1   B1 
    A2  | A2   B2   B1   A1 


                                 Isotopic Masses
                                 ---------------

                           C          12.000000
                           C   _1     12.000000
                           C   _2     12.000000
                           C   _1     12.000000
                           C   _2     12.000000
                           C          12.000000
                           N          14.003074
                           O   _1     15.994915
                           O   _2     15.994915
                           H   _1      1.007825
                           H   _2      1.007825
                           H   _1      1.007825
                           H   _2      1.007825
                           H           1.007825

                       Total mass:   123.032029 amu
                       Natural abundance:  92.716 %

 Center-of-mass coordinates (a.u.):    0.000000    0.000000   -0.360390


  Atoms and basis sets
  --------------------

  Number of atom types :    4
  Total number of atoms:   14

  Basis set used is "aug-cc-pCVDZ" from the basis set library.

  label    atoms   charge   prim   cont     basis
  ----------------------------------------------------------------------
  C           6    6.0000    39    27      [11s6p2d|5s4p2d]                                   
  N           1    7.0000    39    27      [11s6p2d|5s4p2d]                                   
  O           2    8.0000    39    27      [11s6p2d|5s4p2d]                                   
  H           5    1.0000    11     9      [5s2p|3s2p]                                        
  ----------------------------------------------------------------------
  total:     14   64.0000   406   288
  ----------------------------------------------------------------------
  Spherical harmonic basis used.

  Threshold for neglecting AO integrals:  1.00D-12


  Symmetry Coordinates
  --------------------

  Number of coordinates in each symmetry:    14   14    9    5


   Interatomic separations (in Angstrom):
   --------------------------------------

            C           C   _1      C   _2      C   _1      C   _2      C     
            ------      ------      ------      ------      ------      ------
 C     :    0.000000
 C   _1:    1.391719    0.000000
 C   _2:    1.391719    2.438107    0.000000
 C   _1:    2.392065    1.391780    2.799956    0.000000
 C   _2:    2.392065    2.799956    1.391780    2.421019    0.000000
 C     :    2.757573    2.416230    2.416230    1.395542    1.395542    0.000000
 N     :    1.514838    2.503153    2.503153    3.777225    3.777225    4.272411
 O   _1:    2.348958    3.591235    2.758169    4.739507    4.148557    4.961103
 O   _2:    2.348958    2.758169    3.591235    4.148557    4.739507    4.961103
 H   _1:    2.143694    1.081451    3.407316    2.166922    3.881063    3.407904
 H   _2:    2.143694    3.407316    1.081451    3.881063    2.166922    3.407904
 H   _1:    3.376890    2.145360    3.883675    1.083722    3.403140    2.154719
 H   _2:    3.376890    3.883675    2.145360    3.403140    1.083722    2.154719
 H     :    3.841819    3.396703    3.396703    2.151500    2.151500    1.084247

            N           O   _1      O   _2      H   _1      H   _2      H   _1
            ------      ------      ------      ------      ------      ------
 N     :    0.000000
 O   _1:    1.224763    0.000000
 O   _2:    1.224763    2.169501    0.000000
 H   _1:    2.685511    3.898804    2.431175    0.000000
 H   _2:    2.685511    2.431175    3.898804    4.282121    0.000000
 H   _1:    4.646421    5.695365    4.807436    2.498398    4.964773    0.000000
 H   _2:    4.646421    4.807436    5.695365    4.964773    2.498398    4.298566
 H     :    5.356658    6.023781    6.023781    4.305675    4.305675    2.479943

            H   _2      H     
            ------      ------
 H   _2:    0.000000
 H     :    2.479943    0.000000


  Max    interatomic separation is    6.0238 Angstrom (   11.3833 Bohr)
  between atoms   14 and    8, "H     " and "O   _1".

  Min HX interatomic separation is    1.0815 Angstrom (    2.0436 Bohr)

  Min YX interatomic separation is    1.2248 Angstrom (    2.3145 Bohr)


  Bond distances (Angstrom):
  --------------------------

                  atom 1     atom 2       distance
                  ------     ------       --------
  bond distance:  C   _1     C            1.391719
  bond distance:  C   _2     C            1.391719
  bond distance:  C   _1     C   _1       1.391780
  bond distance:  C   _2     C   _2       1.391780
  bond distance:  C          C   _1       1.395542
  bond distance:  C          C   _2       1.395542
  bond distance:  N          C            1.514838
  bond distance:  O   _1     N            1.224763
  bond distance:  O   _2     N            1.224763
  bond distance:  H   _1     C   _1       1.081451
  bond distance:  H   _2     C   _2       1.081451
  bond distance:  H   _1     C   _1       1.083722
  bond distance:  H   _2     C   _2       1.083722
  bond distance:  H          C            1.084247


  Bond angles (degrees):
  ----------------------

                  atom 1     atom 2     atom 3         angle
                  ------     ------     ------         -----
  bond angle:     C   _1     C          C   _2       122.311
  bond angle:     C   _1     C          N            118.844
  bond angle:     C   _2     C          N            118.844
  bond angle:     C          C   _1     C   _1       118.493
  bond angle:     C          C   _1     H   _1       119.647
  bond angle:     C   _1     C   _1     H   _1       121.860
  bond angle:     C          C   _2     C   _2       118.493
  bond angle:     C          C   _2     H   _2       119.647
  bond angle:     C   _2     C   _2     H   _2       121.860
  bond angle:     C   _1     C   _1     C            120.192
  bond angle:     C   _1     C   _1     H   _1       119.623
  bond angle:     C          C   _1     H   _1       120.185
  bond angle:     C   _2     C   _2     C            120.192
  bond angle:     C   _2     C   _2     H   _2       119.623
  bond angle:     C          C   _2     H   _2       120.185
  bond angle:     C   _1     C          C   _2       120.319
  bond angle:     C   _1     C          H            119.841
  bond angle:     C   _2     C          H            119.841
  bond angle:     C          N          O   _1       117.664
  bond angle:     C          N          O   _2       117.664
  bond angle:     O   _1     N          O   _2       124.671




 Principal moments of inertia (u*A**2) and principal axes
 --------------------------------------------------------

   IA     127.027245          0.000000    0.000000    1.000000
   IB     400.484946          1.000000    0.000000    0.000000
   IC     527.512191          0.000000    1.000000    0.000000


 Rotational constants
 --------------------

@    The molecule is planar.

               A                   B                   C

           3978.5088           1261.9176            958.0423 MHz
            0.132709            0.042093            0.031957 cm-1


@  Nuclear repulsion energy :  410.506232977495 Hartree


  Symmetry Orbitals
  -----------------

  Number of orbitals in each symmetry:         115   91   48   34


  Symmetry  A1 ( 1)

    1     C        1s         1
    2     C        1s         2
    3     C        1s         3
    4     C        1s         4
    5     C        1s         5
    6     C        2pz        8
    7     C        2pz       11
    8     C        2pz       14
    9     C        2pz       17
   10     C        3d0       20
   11     C        3d2+      22
   12     C        3d0       25
   13     C        3d2+      27
   14     C        1s        28 +   29
   15     C        1s        30 +   31
   16     C        1s        32 +   33
   17     C        1s        34 +   35
   18     C        1s        36 +   37
   19     C        2px       38 -   39
   20     C        2pz       42 +   43
   21     C        2px       44 -   45
   22     C        2pz       48 +   49
   23     C        2px       50 -   51
   24     C        2pz       54 +   55
   25     C        2px       56 -   57
   26     C        2pz       60 +   61
   27     C        3d0       66 +   67
   28     C        3d1+      68 -   69
   29     C        3d2+      70 +   71
   30     C        3d0       76 +   77
   31     C        3d1+      78 -   79
   32     C        3d2+      80 +   81
   33     C        1s        82 +   83
   34     C        1s        84 +   85
   35     C        1s        86 +   87
   36     C        1s        88 +   89
   37     C        1s        90 +   91
   38     C        2px       92 -   93
   39     C        2pz       96 +   97
   40     C        2px       98 -   99
   41     C        2pz      102 +  103
   42     C        2px      104 -  105
   43     C        2pz      108 +  109
   44     C        2px      110 -  111
   45     C        2pz      114 +  115
   46     C        3d0      120 +  121
   47     C        3d1+     122 -  123
   48     C        3d2+     124 +  125
   49     C        3d0      130 +  131
   50     C        3d1+     132 -  133
   51     C        3d2+     134 +  135
   52     C        1s       136
   53     C        1s       137
   54     C        1s       138
   55     C        1s       139
   56     C        1s       140
   57     C        2pz      143
   58     C        2pz      146
   59     C        2pz      149
   60     C        2pz      152
   61     C        3d0      155
   62     C        3d2+     157
   63     C        3d0      160
   64     C        3d2+     162
   65     N        1s       163
   66     N        1s       164
   67     N        1s       165
   68     N        1s       166
   69     N        1s       167
   70     N        2pz      170
   71     N        2pz      173
   72     N        2pz      176
   73     N        2pz      179
   74     N        3d0      182
   75     N        3d2+     184
   76     N        3d0      187
   77     N        3d2+     189
   78     O        1s       190 +  191
   79     O        1s       192 +  193
   80     O        1s       194 +  195
   81     O        1s       196 +  197
   82     O        1s       198 +  199
   83     O        2px      200 -  201
   84     O        2pz      204 +  205
   85     O        2px      206 -  207
   86     O        2pz      210 +  211
   87     O        2px      212 -  213
   88     O        2pz      216 +  217
   89     O        2px      218 -  219
   90     O        2pz      222 +  223
   91     O        3d0      228 +  229
   92     O        3d1+     230 -  231
   93     O        3d2+     232 +  233
   94     O        3d0      238 +  239
   95     O        3d1+     240 -  241
   96     O        3d2+     242 +  243
   97     H        1s       244 +  245
   98     H        1s       246 +  247
   99     H        1s       248 +  249
  100     H        2px      250 -  251
  101     H        2pz      254 +  255
  102     H        2px      256 -  257
  103     H        2pz      260 +  261
  104     H        1s       262 +  263
  105     H        1s       264 +  265
  106     H        1s       266 +  267
  107     H        2px      268 -  269
  108     H        2pz      272 +  273
  109     H        2px      274 -  275
  110     H        2pz      278 +  279
  111     H        1s       280
  112     H        1s       281
  113     H        1s       282
  114     H        2pz      285
  115     H        2pz      288


  Symmetry  B1 ( 2)

  116     C        2px        6
  117     C        2px        9
  118     C        2px       12
  119     C        2px       15
  120     C        3d1+      21
  121     C        3d1+      26
  122     C        1s        28 -   29
  123     C        1s        30 -   31
  124     C        1s        32 -   33
  125     C        1s        34 -   35
  126     C        1s        36 -   37
  127     C        2px       38 +   39
  128     C        2pz       42 -   43
  129     C        2px       44 +   45
  130     C        2pz       48 -   49
  131     C        2px       50 +   51
  132     C        2pz       54 -   55
  133     C        2px       56 +   57
  134     C        2pz       60 -   61
  135     C        3d0       66 -   67
  136     C        3d1+      68 +   69
  137     C        3d2+      70 -   71
  138     C        3d0       76 -   77
  139     C        3d1+      78 +   79
  140     C        3d2+      80 -   81
  141     C        1s        82 -   83
  142     C        1s        84 -   85
  143     C        1s        86 -   87
  144     C        1s        88 -   89
  145     C        1s        90 -   91
  146     C        2px       92 +   93
  147     C        2pz       96 -   97
  148     C        2px       98 +   99
  149     C        2pz      102 -  103
  150     C        2px      104 +  105
  151     C        2pz      108 -  109
  152     C        2px      110 +  111
  153     C        2pz      114 -  115
  154     C        3d0      120 -  121
  155     C        3d1+     122 +  123
  156     C        3d2+     124 -  125
  157     C        3d0      130 -  131
  158     C        3d1+     132 +  133
  159     C        3d2+     134 -  135
  160     C        2px      141
  161     C        2px      144
  162     C        2px      147
  163     C        2px      150
  164     C        3d1+     156
  165     C        3d1+     161
  166     N        2px      168
  167     N        2px      171
  168     N        2px      174
  169     N        2px      177
  170     N        3d1+     183
  171     N        3d1+     188
  172     O        1s       190 -  191
  173     O        1s       192 -  193
  174     O        1s       194 -  195
  175     O        1s       196 -  197
  176     O        1s       198 -  199
  177     O        2px      200 +  201
  178     O        2pz      204 -  205
  179     O        2px      206 +  207
  180     O        2pz      210 -  211
  181     O        2px      212 +  213
  182     O        2pz      216 -  217
  183     O        2px      218 +  219
  184     O        2pz      222 -  223
  185     O        3d0      228 -  229
  186     O        3d1+     230 +  231
  187     O        3d2+     232 -  233
  188     O        3d0      238 -  239
  189     O        3d1+     240 +  241
  190     O        3d2+     242 -  243
  191     H        1s       244 -  245
  192     H        1s       246 -  247
  193     H        1s       248 -  249
  194     H        2px      250 +  251
  195     H        2pz      254 -  255
  196     H        2px      256 +  257
  197     H        2pz      260 -  261
  198     H        1s       262 -  263
  199     H        1s       264 -  265
  200     H        1s       266 -  267
  201     H        2px      268 +  269
  202     H        2pz      272 -  273
  203     H        2px      274 +  275
  204     H        2pz      278 -  279
  205     H        2px      283
  206     H        2px      286


  Symmetry  B2 ( 3)

  207     C        2py        7
  208     C        2py       10
  209     C        2py       13
  210     C        2py       16
  211     C        3d1-      19
  212     C        3d1-      24
  213     C        2py       40 +   41
  214     C        2py       46 +   47
  215     C        2py       52 +   53
  216     C        2py       58 +   59
  217     C        3d2-      62 -   63
  218     C        3d1-      64 +   65
  219     C        3d2-      72 -   73
  220     C        3d1-      74 +   75
  221     C        2py       94 +   95
  222     C        2py      100 +  101
  223     C        2py      106 +  107
  224     C        2py      112 +  113
  225     C        3d2-     116 -  117
  226     C        3d1-     118 +  119
  227     C        3d2-     126 -  127
  228     C        3d1-     128 +  129
  229     C        2py      142
  230     C        2py      145
  231     C        2py      148
  232     C        2py      151
  233     C        3d1-     154
  234     C        3d1-     159
  235     N        2py      169
  236     N        2py      172
  237     N        2py      175
  238     N        2py      178
  239     N        3d1-     181
  240     N        3d1-     186
  241     O        2py      202 +  203
  242     O        2py      208 +  209
  243     O        2py      214 +  215
  244     O        2py      220 +  221
  245     O        3d2-     224 -  225
  246     O        3d1-     226 +  227
  247     O        3d2-     234 -  235
  248     O        3d1-     236 +  237
  249     H        2py      252 +  253
  250     H        2py      258 +  259
  251     H        2py      270 +  271
  252     H        2py      276 +  277
  253     H        2py      284
  254     H        2py      287


  Symmetry  A2 ( 4)

  255     C        3d2-      18
  256     C        3d2-      23
  257     C        2py       40 -   41
  258     C        2py       46 -   47
  259     C        2py       52 -   53
  260     C        2py       58 -   59
  261     C        3d2-      62 +   63
  262     C        3d1-      64 -   65
  263     C        3d2-      72 +   73
  264     C        3d1-      74 -   75
  265     C        2py       94 -   95
  266     C        2py      100 -  101
  267     C        2py      106 -  107
  268     C        2py      112 -  113
  269     C        3d2-     116 +  117
  270     C        3d1-     118 -  119
  271     C        3d2-     126 +  127
  272     C        3d1-     128 -  129
  273     C        3d2-     153
  274     C        3d2-     158
  275     N        3d2-     180
  276     N        3d2-     185
  277     O        2py      202 -  203
  278     O        2py      208 -  209
  279     O        2py      214 -  215
  280     O        2py      220 -  221
  281     O        3d2-     224 +  225
  282     O        3d1-     226 -  227
  283     O        3d2-     234 +  235
  284     O        3d1-     236 -  237
  285     H        2py      252 -  253
  286     H        2py      258 -  259
  287     H        2py      270 -  271
  288     H        2py      276 -  277

  Symmetries of electric field:  B1 (2)  B2 (3)  A1 (1)

  Symmetries of magnetic field:  B2 (3)  B1 (2)  A2 (4)


                     .---------------------------------------.
                     | Starting in Integral Section (HERMIT) |
                     `---------------------------------------'



 ***************************************************************************************
 ****************** Output from **INTEGRALS input processing (HERMIT) ******************
 ***************************************************************************************


 - Using defaults, no **INTEGRALS input found

 Default print level:        1

 Calculation of one-electron Hamiltonian integrals.

 Center of mass  (bohr):      0.000000000000      0.000000000000     -0.360390312848
 Operator center (bohr):      0.000000000000      0.000000000000      0.000000000000
 Gauge origin    (bohr):      0.000000000000      0.000000000000      0.000000000000
 Dipole origin   (bohr):      0.000000000000      0.000000000000      0.000000000000


     ************************************************************************
     ************************** Output from HERINT **************************
     ************************************************************************



                      Nuclear contribution to dipole moments
                      --------------------------------------

                 au               Debye          C m (/(10**-30)

      z    -30.96312501       -78.70040867      -262.51630610


  Time used in GABGEN     is       0.11 seconds
  Total CPU  time used in HERMIT:   0.42 seconds
  Total wall time used in HERMIT:   0.42 seconds


                        .----------------------------------.
                        | End of Integral Section (HERMIT) |
                        `----------------------------------'



                   .--------------------------------------------.
                   | Starting in Wave Function Section (SIRIUS) |
                   `--------------------------------------------'


 *** Output from Huckel module :

     Using EWMO model:          F
     Using EHT  model:          T
     Number of Huckel orbitals each symmetry:   24   17    6    3

 Huckel EHT eigenvalues for symmetry :  1
          -20.695706     -15.704735     -11.414690     -11.394158     -11.376446
          -11.362476      -1.740544      -1.555877      -1.196249      -0.940736
           -0.818060      -0.781957      -0.645716      -0.589640      -0.493743
           -0.429916      -0.329037      -0.250265      -0.227226      -0.213849
           -0.205977      -0.179125      -0.166457      -0.160651

 Huckel EHT eigenvalues for symmetry :  2
          -20.700580     -11.396461     -11.377848      -1.396676      -1.204418
           -0.879990      -0.646620      -0.569604      -0.526953      -0.480252
           -0.414999      -0.271795      -0.213369      -0.202837      -0.176266
           -0.165430      -0.163366

 Huckel EHT eigenvalues for symmetry :  3
           -0.797094      -0.673654      -0.465336      -0.385467      -0.282377
           -0.236727

 Huckel EHT eigenvalues for symmetry :  4
           -0.592810      -0.460190      -0.288846

 **********************************************************************
 *SIRIUS* a direct, restricted step, second order MCSCF program       *
 **********************************************************************

 
     Date and time (Linux)  : Fri Feb 28 12:21:21 2020
     Host name              : Lab2-333-NPs                            

 Title lines from ".mol" input file:
      nitrobenzene                                                           
      Generated by the Dalton Input File Plugin for Avogadro                 

 Print level on unit LUPRI =   2 is   0
 Print level on unit LUW4  =   2 is   5

@    MC-SCF optimization.

@    Multi-configurational response calculation.
@              Type: complete active space calculation (CAS).

@    This is a combination run starting with
@              a restricted, closed shell Hartree-Fock calculation
@              an MP2 calculation

 Fock matrices are calculated directly without use of integrals on disk.

 Initial molecular orbitals are obtained according to
 ".MOSTART EHT   " input option

     Wave function specification
     ============================
@    Wave function type        --- MC-SCF ---
@    Number of closed shell electrons          54
@    Number of electrons in active shells      10
@    Total charge of the molecule               0

@    Spin multiplicity and 2 M_S                1         0
@    Total number of symmetries                 4 (point group: C2v)
@    Reference state symmetry                   1 (irrep name : A1 )

     Orbital specifications
     ======================
@    Abelian symmetry species          All |    1    2    3    4
@                                          |  A1   B1   B2   A2 
                                       --- |  ---  ---  ---  ---
@    Inactive orbitals                  27 |   15   10    2    0
@    Active orbitals                     7 |    1    1    2    3
@    Secondary orbitals                254 |   99   80   44   31
@    Total number of orbitals          288 |  115   91   48   34
@    Number of basis functions         288 |  115   91   48   34

      ** Automatic occupation of RHF orbitals **

      -- Initial occupation of symmetries is determined from extended Huckel guess.           
      -- Initial occupation of symmetries is :
@    Occupied SCF orbitals              32 |   16   11    3    2

     Optimization information
     ========================
@    Number of determinants                 115
@    Number of orbital rotations           2762
     ------------------------------------------
@    Total number of variables             2877

     Maximum number of macro iterations      40
     Maximum number of micro iterations     960
     Threshold for MCSCF gradient      1.00D-05
     Number of initial trial vectors          2
     Number of initial CI iterations          3
     Number of simultaneous trial vectors     2

@    This calculation converges to state no.   2 for the specified symmetry and spin species.

     Maximum number of NEO/NR iterations  24

    INFORMATION: Switched to "new" integral transformation (from 1988 ;-) )
    because more than 255 basis functions.


 ***********************************************
 ***** DIIS acceleration of SCF iterations *****
 ***********************************************

 C1-DIIS algorithm; max error vectors =    8

 Automatic occupation of symmetries with  64 electrons.

 Iter     Total energy    Error norm  Delta(E)    SCF occupation
 -----------------------------------------------------------------------------
   1  Screening settings (-IFTHRS, JTDIIS, DIFDEN, times)   -8    1    T  2.81D+01  2.81D+01
@  1  -432.273336947       6.44D+00  -4.32D+02    16  11   3   2
      Virial theorem: -V/T =      1.998946
@    MULPOP   C       0.32; C   _1  0.27; C   _2  0.27; C   _1  0.24; C   _2  0.24; C       0.35; N       1.29; O   _1 -1.01; O   _2 -1.01; H   _1 -0.20; 
@             H   _2 -0.20; H   _1 -0.18; H   _2 -0.18; H      -0.19; 
   1  Level shift: doubly occupied orbital energies shifted by -2.00D-01
 -----------------------------------------------------------------------------
   2  Screening settings (-IFTHRS, JTDIIS, DIFDEN, times)   -8    2    T  3.04D+01  3.06D+01
@  2  -433.849878317       2.88D+00  -1.58D+00    16  11   3   2
      Virial theorem: -V/T =      2.001639
@    MULPOP   C       0.82; C   _1  0.37; C   _2  0.37; C   _1  0.35; C   _2  0.35; C       0.43; N       0.35; O   _1 -0.52; O   _2 -0.52; H   _1 -0.40; 
@             H   _2 -0.40; H   _1 -0.40; H   _2 -0.40; H      -0.41; 
   2  Level shift: doubly occupied orbital energies shifted by -1.00D-01
 -----------------------------------------------------------------------------
   3  Screening settings (-IFTHRS, JTDIIS, DIFDEN, times)   -8    3    T  3.16D+01  3.20D+01
@  3  -434.205353683       7.22D-01  -3.55D-01    16  11   3   2
      Virial theorem: -V/T =      2.001022
@    MULPOP   C       1.61; C   _1  0.26; C   _2  0.26; C   _1  0.46; C   _2  0.46; C       0.28; N       0.68; O   _1 -0.89; O   _2 -0.89; H   _1 -0.45; 
@             H   _2 -0.45; H   _1 -0.44; H   _2 -0.44; H      -0.44; 
   3  Level shift: doubly occupied orbital energies shifted by -5.00D-02
 -----------------------------------------------------------------------------
   4  Screening settings (-IFTHRS, JTDIIS, DIFDEN, times)   -8    4    T  3.07D+01  3.08D+01
@  4  -434.231309243       1.80D-01  -2.60D-02    16  11   3   2
      Virial theorem: -V/T =      2.002792
@    MULPOP   C       1.69; C   _1  0.21; C   _2  0.21; C   _1  0.52; C   _2  0.52; C       0.29; N       0.53; O   _1 -0.86; O   _2 -0.86; H   _1 -0.45; 
@             H   _2 -0.45; H   _1 -0.45; H   _2 -0.45; H      -0.46; 
   4  Level shift: doubly occupied orbital energies shifted by -1.25D-02
 -----------------------------------------------------------------------------
   5  Screening settings (-IFTHRS, JTDIIS, DIFDEN, times)  -10    5    F  3.05D+01  3.06D+01
@  5  -434.233927243       5.39D-02  -2.62D-03    16  11   3   2
      Virial theorem: -V/T =      2.002227
@    MULPOP   C       1.72; C   _1  0.19; C   _2  0.19; C   _1  0.52; C   _2  0.52; C       0.27; N       0.52; O   _1 -0.86; O   _2 -0.86; H   _1 -0.44; 
@             H   _2 -0.44; H   _1 -0.44; H   _2 -0.44; H      -0.44; 
 -----------------------------------------------------------------------------
   6  Screening settings (-IFTHRS, JTDIIS, DIFDEN, times)  -10    6    T  3.05D+01  3.05D+01
@  6  -434.234261738       1.48D-02  -3.34D-04    16  11   3   2
      Virial theorem: -V/T =      2.002155
@    MULPOP   C       1.74; C   _1  0.18; C   _2  0.18; C   _1  0.52; C   _2  0.52; C       0.27; N       0.50; O   _1 -0.86; O   _2 -0.86; H   _1 -0.44; 
@             H   _2 -0.44; H   _1 -0.44; H   _2 -0.44; H      -0.44; 
 -----------------------------------------------------------------------------
   7  Screening settings (-IFTHRS, JTDIIS, DIFDEN, times)  -13    7    F  3.20D+01  3.22D+01
@  7  -434.234292706       5.85D-03  -3.10D-05    16  11   3   2
      Virial theorem: -V/T =      2.002188
@    MULPOP   C       1.75; C   _1  0.18; C   _2  0.18; C   _1  0.52; C   _2  0.52; C       0.27; N       0.50; O   _1 -0.86; O   _2 -0.86; H   _1 -0.44; 
@             H   _2 -0.44; H   _1 -0.44; H   _2 -0.44; H      -0.44; 
 -----------------------------------------------------------------------------
   8  Screening settings (-IFTHRS, JTDIIS, DIFDEN, times)  -13    8    T  3.12D+01  3.13D+01
@  8  -434.234297217       2.04D-03  -4.51D-06    16  11   3   2
      Virial theorem: -V/T =      2.002176
@    MULPOP   C       1.75; C   _1  0.18; C   _2  0.18; C   _1  0.52; C   _2  0.52; C       0.27; N       0.50; O   _1 -0.86; O   _2 -0.86; H   _1 -0.44; 
@             H   _2 -0.44; H   _1 -0.44; H   _2 -0.44; H      -0.44; 
 -----------------------------------------------------------------------------
   9  Screening settings (-IFTHRS, JTDIIS, DIFDEN, times)  -13    9    T  3.12D+01  3.14D+01
@  9  -434.234297726       6.67D-04  -5.09D-07    16  11   3   2
      Virial theorem: -V/T =      2.002173
@    MULPOP   C       1.75; C   _1  0.18; C   _2  0.18; C   _1  0.52; C   _2  0.52; C       0.27; N       0.50; O   _1 -0.86; O   _2 -0.86; H   _1 -0.44; 
@             H   _2 -0.44; H   _1 -0.44; H   _2 -0.44; H      -0.44; 
 -----------------------------------------------------------------------------
  10  Screening settings (-IFTHRS, JTDIIS, DIFDEN, times)  -13   10    T  3.11D+01  3.12D+01
@ 10  -434.234297785       2.36D-04  -5.90D-08    16  11   3   2
      Virial theorem: -V/T =      2.002175
@    MULPOP   C       1.75; C   _1  0.18; C   _2  0.18; C   _1  0.52; C   _2  0.52; C       0.27; N       0.50; O   _1 -0.86; O   _2 -0.86; H   _1 -0.44; 
@             H   _2 -0.44; H   _1 -0.44; H   _2 -0.44; H      -0.44; 
 -----------------------------------------------------------------------------
  11  Screening settings (-IFTHRS, JTDIIS, DIFDEN, times)  -13   11    T  3.10D+01  3.12D+01
@ 11  -434.234297796       9.18D-05  -1.10D-08    16  11   3   2
      Virial theorem: -V/T =      2.002174
@    MULPOP   C       1.75; C   _1  0.18; C   _2  0.18; C   _1  0.52; C   _2  0.52; C       0.27; N       0.50; O   _1 -0.86; O   _2 -0.86; H   _1 -0.44; 
@             H   _2 -0.44; H   _1 -0.44; H   _2 -0.44; H      -0.44; 
 -----------------------------------------------------------------------------
  12  Screening settings (-IFTHRS, JTDIIS, DIFDEN, times)  -13   12    T  3.13D+01  3.14D+01
@ 12  -434.234297798       3.95D-05  -2.09D-09    16  11   3   2
      Virial theorem: -V/T =      2.002174
@    MULPOP   C       1.75; C   _1  0.18; C   _2  0.18; C   _1  0.52; C   _2  0.52; C       0.27; N       0.50; O   _1 -0.86; O   _2 -0.86; H   _1 -0.44; 
@             H   _2 -0.44; H   _1 -0.44; H   _2 -0.44; H      -0.44; 
 -----------------------------------------------------------------------------
  13  Screening settings (-IFTHRS, JTDIIS, DIFDEN, times)  -13   13    T  3.10D+01  3.11D+01
@ 13  -434.234297799       2.09D-05  -3.35D-10    16  11   3   2
      Virial theorem: -V/T =      2.002174
@    MULPOP   C       1.75; C   _1  0.18; C   _2  0.18; C   _1  0.52; C   _2  0.52; C       0.27; N       0.50; O   _1 -0.86; O   _2 -0.86; H   _1 -0.44; 
@             H   _2 -0.44; H   _1 -0.44; H   _2 -0.44; H      -0.44; 
 -----------------------------------------------------------------------------
  14  Screening settings (-IFTHRS, JTDIIS, DIFDEN, times)  -13   14    T  3.05D+01  3.06D+01
@ 14  -434.234297799       7.82D-06  -1.28D-10    16  11   3   2
      Virial theorem: -V/T =      2.002174
@    MULPOP   C       1.75; C   _1  0.18; C   _2  0.18; C   _1  0.52; C   _2  0.52; C       0.27; N       0.50; O   _1 -0.86; O   _2 -0.86; H   _1 -0.44; 
@             H   _2 -0.44; H   _1 -0.44; H   _2 -0.44; H      -0.44; 
 -----------------------------------------------------------------------------
  15  Screening settings (-IFTHRS, JTDIIS, DIFDEN, times)  -13   15    T  3.03D+01  3.04D+01
@ 15  -434.234297799       3.11D-06  -2.82D-11    16  11   3   2
      Virial theorem: -V/T =      2.002174
@    MULPOP   C       1.75; C   _1  0.18; C   _2  0.18; C   _1  0.52; C   _2  0.52; C       0.27; N       0.50; O   _1 -0.86; O   _2 -0.86; H   _1 -0.44; 
@             H   _2 -0.44; H   _1 -0.44; H   _2 -0.44; H      -0.44; 
 -----------------------------------------------------------------------------
  16  Screening settings (-IFTHRS, JTDIIS, DIFDEN, times)  -13   16    T  3.02D+01  3.03D+01
@ 16  -434.234297799       1.32D-06  -5.80D-12    16  11   3   2
      Virial theorem: -V/T =      2.002174
@    MULPOP   C       1.75; C   _1  0.18; C   _2  0.18; C   _1  0.52; C   _2  0.52; C       0.27; N       0.50; O   _1 -0.86; O   _2 -0.86; H   _1 -0.44; 
@             H   _2 -0.44; H   _1 -0.44; H   _2 -0.44; H      -0.44; 
 -----------------------------------------------------------------------------
  17  Screening settings (-IFTHRS, JTDIIS, DIFDEN, times)  -13   17    T  2.80D+01  2.81D+01
@ 17  -434.234297799       5.18D-07   5.80D-12    16  11   3   2

@ *** DIIS converged in  17 iterations !
@     Converged SCF energy, gradient:   -434.234297798696    5.18D-07
    - total time used in SIRFCK :              0.00 seconds

 --- Writing SIRIFC interface file

 CPU and wall time for SCF :     520.438     522.599


 ----- Output from SIRIUS MP2 module -----

 Reference: H.J.Aa.Jensen, P.Jorgensen, H.Agren, and J.Olsen,
            J. Chem. Phys. 88, 3834 (1988); 89, 5354 (1988)

 Checking that the closed shell orbitals are canonical Hartree-Fock orbitals

    Number of electrons  :   64
    Closed shell orbitals:   16   11    3    2

 Generating Fock matrix

 Hartree-Fock electronic energy:        -844.740530776213
 Hartree-Fock total      energy:        -434.234297798717

 Hartree-Fock orbital energies, symmetry 1 ( A1 ),   16 occupied SCF orbitals

       -20.61528416   -15.86316806   -11.32398190   -11.28478534   -11.28147971
       -11.27480121    -1.60970318    -1.20106137    -1.08924175    -0.95967442
        -0.83410091    -0.78247004    -0.71072235    -0.65300232    -0.55810280
        -0.49308084     0.02659412     0.04408614     0.06223222     0.10463876
         0.13017726     0.13491257     0.15110575     0.15629356     0.17306234
         0.18061870     0.21432448     0.25707092     0.28790751     0.29708595
         0.31116700     0.33353557     0.34762525     0.35145445     0.37017632
         0.39509482     0.41253636     0.42874597     0.45484171     0.48456680
         0.51283392     0.56048757     0.58105989     0.58646272     0.63056053
         0.64688426     0.65880365     0.67570407     0.72424053     0.73145274
         0.74215619     0.83719586     0.88282668     0.92798930     0.95512065
         0.96410568     1.00624072     1.05555062     1.07651819     1.13523094
         1.27606626     1.35961835     1.37544666     1.45042845     1.49405388
         1.51196773     1.54968280     1.57058584     1.58277588     1.61438818
         1.67746061     1.71600698     1.74751066     1.77489834     1.86667605
         1.94015209     1.95360714     2.00517610     2.01743802     2.12322071
         2.16256508     2.23886780     2.30139334     2.37374874     2.40366845
         2.44314433     2.54636681     2.68600282     2.77044365     2.83438025
         2.88009082     2.96166929     3.03692132     3.14323842     3.27050058
         3.42577040     3.75553067     3.97430900     4.08470928     4.23518264
        19.79678392    20.32874741    20.44863242    20.61923226    23.33364860
        23.35720369    23.42414669    23.80751748    23.90548119    24.11744434
        27.06411565    31.25148609    35.79277565    39.71709328    39.82895367

 Hartree-Fock orbital energies, symmetry 2 ( B1 ),   11 occupied SCF orbitals

       -20.61533645   -11.28482236   -11.27491967    -1.40485915    -1.05631203
        -0.86788069    -0.73028904    -0.65933714    -0.62675126    -0.53299030
        -0.49638635     0.03595220     0.05987708     0.13010967     0.13337851
         0.15342609     0.17406716     0.18351241     0.21394961     0.26209364
         0.28923445     0.31370240     0.33382535     0.36072688     0.36957103
         0.39404121     0.42186821     0.43735417     0.46840941     0.56567688
         0.57766646     0.58920497     0.64849565     0.66969218     0.67837138
         0.69958537     0.75619934     0.76249973     0.82893724     0.84365268
         0.86247435     0.92663430     1.01563532     1.14067267     1.20312586
         1.24786291     1.31962495     1.40003436     1.41300353     1.48557557
         1.56855990     1.58889191     1.61083673     1.63668355     1.69451815
         1.75667007     1.77058556     1.78681307     1.88601661     1.93114375
         1.99466513     2.07844319     2.22487066     2.25934428     2.33921439
         2.34497209     2.38612926     2.52793703     2.56717145     2.78423626
         2.89818813     2.93732366     3.08030831     3.27362424     3.32543541
         3.41232972     3.74946540     3.85023737     4.20818254    20.29804440
        20.47847259    22.89715619    23.33786351    23.38558630    23.93763751
        24.11961554    24.30659144    31.44236666    35.53909558    39.63042195
        40.02852331

 Hartree-Fock orbital energies, symmetry 3 ( B2 ),    3 occupied SCF orbitals

        -0.71746018    -0.53852679    -0.37872194     0.03755157     0.10666030
         0.12433074     0.13894794     0.18442041     0.19118778     0.24429818
         0.31942848     0.34080334     0.37387063     0.44331530     0.53253383
         0.58697589     0.64289734     0.71082430     0.79308444     0.84000815
         0.87005118     0.91933419     0.92578007     0.98350134     1.14318980
         1.28428873     1.28785523     1.46404885     1.47372316     1.61294937
         1.67293091     1.70641802     1.84019107     1.89684720     1.97404759
         2.08156771     2.17678859     2.29575074     2.53932720     2.66628672
         3.66668522     3.78110717    22.54095815    22.68692971    22.82491842
        23.02523072    30.54145078    39.41811974

 Hartree-Fock orbital energies, symmetry 4 ( A2 ),    2 occupied SCF orbitals

        -0.45667836    -0.37027068     0.08521869     0.13121992     0.18584031
         0.29691883     0.41293358     0.49029834     0.54696105     0.65940316
         0.73574370     0.89567872     0.90047678     0.94314874     1.03827042
         1.08590323     1.21194775     1.23885906     1.33049552     1.48560284
         1.67377218     1.68888156     1.86233143     1.99936467     2.11806786
         2.20660338     2.35217384     2.46704414     2.60230096     3.66191597
         4.00030561    22.69168787    22.85793994    39.49348497

    E(LUMO) :     0.02659412   (in symmetry 1)
  - E(HOMO) :    -0.37027068   (in symmetry 4)
  --------------------------
    gap     :     0.39686480

---> (Re)generating AOTWOINT


     ************************************************************************
     ************************** Output from HERINT **************************
     ************************************************************************


 Threshold for neglecting two-electron integrals:  1.00D-12
 HERMIT - Number of two-electron integrals written:   203135304 ( 23.5% )
 HERMIT - Megabytes written:                           3100.892

  Time used in TWOINT     is      39.62 seconds

 2-el. integral transformation level 5: Total CPU and WALL times (sec)     422.953     425.565

 MP2 move   0.996849 electrons to unoccupied HF orbitals


@   Hartree-Fock total energy   :          -434.2342977987
@   + MP2 contribution          :            -1.7270557894
@   = MP2 second order energy   :          -435.9613535881

 Natural orbital occupation numbers, symmetry 1 (irrep A1 )
 Sum =    32.00788323; RHF =    32.00000000; Difference =     0.00788323

         1.99929023     1.99907622     1.99876158     1.99875729     1.99875226
         1.99874879     1.98687393     1.98412181     1.97936540     1.97208968
         1.96885134     1.96810831     1.96536576     1.96213357     1.95505596
         1.94484372     0.04272981     0.03759480     0.02542478     0.02386957
         0.01921032     0.01852890     0.01742521     0.01644732     0.01378603
         0.01267258     0.01166484     0.00983306     0.00854814     0.00784531
         0.00742162     0.00671041     0.00559545     0.00457755     0.00306451
         0.00294828     0.00271097     0.00262583     0.00223746     0.00204988
         0.00184189     0.00167135     0.00163001     0.00131833     0.00121863
         0.00116290     0.00105940     0.00096468     0.00071569     0.00065313
         0.00061221     0.00053475     0.00049923     0.00046299     0.00043909
         0.00041632     0.00040742     0.00038571     0.00037570     0.00035090
         0.00034262     0.00032460     0.00031292     0.00029250     0.00026869
         0.00026196     0.00022367     0.00021969     0.00020567     0.00019625
         0.00018776     0.00018579     0.00017661     0.00017179     0.00016640
         0.00016161     0.00015542     0.00015001     0.00014018     0.00013350
         0.00012673     0.00012451     0.00012202     0.00011091     0.00010479
         0.00009394     0.00007823     0.00007166     0.00005878     0.00005494
         0.00005228     0.00003955     0.00003484     0.00002864     0.00002079
         0.00001736     0.00001442     0.00001278     0.00001167     0.00000939
         0.00000876     0.00000854     0.00000716     0.00000317     0.00000314
         0.00000205     0.00000108     0.00000057     0.00000037     0.00000019
         0.00000016     0.00000000    -0.00000010    -0.00000051    -0.00005604

 Natural orbital occupation numbers, symmetry 2 (irrep B1 )
 Sum =    21.95351412; RHF =    22.00000000; Difference =    -0.04648588

         1.99929011     1.99875731     1.99875100     1.98411723     1.98002986
         1.97271978     1.96241736     1.96046016     1.95478919     1.95424786
         1.94641832     0.03801470     0.02539355     0.02382953     0.01910356
         0.01659825     0.01593584     0.01527127     0.01128364     0.01053946
         0.00910640     0.00767278     0.00585930     0.00539122     0.00517805
         0.00397964     0.00312541     0.00273273     0.00239214     0.00213053
         0.00171315     0.00162462     0.00152259     0.00131999     0.00119623
         0.00102990     0.00097780     0.00070022     0.00064059     0.00056866
         0.00048978     0.00044064     0.00042273     0.00037210     0.00035497
         0.00033601     0.00030527     0.00029279     0.00026984     0.00025812
         0.00024013     0.00021159     0.00019779     0.00018760     0.00018259
         0.00017762     0.00017036     0.00016914     0.00016030     0.00015353
         0.00014387     0.00013390     0.00012970     0.00012575     0.00011888
         0.00011377     0.00009443     0.00008925     0.00006941     0.00005363
         0.00004592     0.00003686     0.00003055     0.00002938     0.00002304
         0.00001527     0.00001414     0.00001137     0.00001065     0.00000849
         0.00000470     0.00000366     0.00000178     0.00000124     0.00000060
         0.00000029     0.00000014    -0.00000002    -0.00000020    -0.00000068
        -0.00001847

 Natural orbital occupation numbers, symmetry 3 (irrep B2 )
 Sum =     6.07766473; RHF =     6.00000000; Difference =     0.07766473

         1.95027515     1.94441587     1.90908065     0.10109237     0.06806931
         0.02967007     0.01061665     0.01031161     0.00873491     0.00791891
         0.00617031     0.00527398     0.00444935     0.00389686     0.00343100
         0.00307229     0.00156310     0.00144523     0.00098869     0.00088738
         0.00086914     0.00066256     0.00059479     0.00049451     0.00047147
         0.00042026     0.00033540     0.00028997     0.00024824     0.00022905
         0.00019787     0.00019605     0.00018987     0.00017695     0.00015333
         0.00013044     0.00012094     0.00011106     0.00009964     0.00008315
         0.00008041     0.00006348     0.00003684     0.00002065     0.00001051
         0.00000805     0.00000519     0.00000123

 Natural orbital occupation numbers, symmetry 4 (irrep A2 )
 Sum =     3.96093793; RHF =     4.00000000; Difference =    -0.03906207

         1.91611618     1.90857213     0.06669828     0.01443960     0.01041125
         0.00932388     0.00790335     0.00570487     0.00511511     0.00406602
         0.00358766     0.00151717     0.00119704     0.00093732     0.00077842
         0.00072776     0.00067362     0.00056436     0.00040699     0.00037087
         0.00033790     0.00029646     0.00021842     0.00019695     0.00016594
         0.00013321     0.00011688     0.00010375     0.00009342     0.00006965
         0.00004968     0.00002071     0.00001761     0.00000545

 Time used for MP2 natural orbitals :     456.219 CPU seconds,     458.963 wall seconds.

 CPU and wall time for MP2 :     456.219     458.963


        SIRIUS MCSCF optimization (SIROPT)
 ================================================


 Fock matrix screening setting for SIRCNO: IFTHRS =    9


 ----- Output from SIRIUS CI module (CICTL) -----




 2-el. integral transformation level 0: Total CPU and WALL times (sec)     107.484     107.778


 --- SIRCI.CIST1: plus combination of all degenerate
                 configurations is used as start vectors.


 (CIST1) 18 lowest diagonal elements:

 Element no. Config.no.    Active energy      Total energy

         1 :         67    -17.2991619907   -434.2154957556
         2 :         69    -17.0078181571   -433.9241519221
         3 :         81    -17.0078181571   -433.9241519221
         4 :         68    -16.9473161833   -433.8636499483
         5 :         74    -16.9473161833   -433.8636499483
         6 :         78    -16.8536073848   -433.7699411497
         7 :         96    -16.8536073848   -433.7699411497
         8 :         71    -16.8031268144   -433.7194605794
         9 :         95    -16.8031268144   -433.7194605794
        10 :         54    -16.7035755792   -433.6199093442
        11 :         63    -16.7035755792   -433.6199093442
        12 :         83    -16.7019705599   -433.6183043249
        13 :         76    -16.6686365267   -433.5849702916
        14 :         82    -16.6686365267   -433.5849702916
        15 :         58    -16.6594774683   -433.5758112333
        16 :         64    -16.6594774683   -433.5758112333
        17 :         72    -16.6533283101   -433.5696620750
        18 :        102    -16.6533283101   -433.5696620750


 Convergence threshold for CI optimization :     0.00000500



 *** Reached maximum number of CI iterations:    3
              1 CI roots are not converged.


@ Final CI energies and residuals in symmetry 1 (irrep A1 )
@    1     -434.263668915046992       4.09D-02
@    2     -433.894846818448855       5.40D-03
@    3     -433.868080669725202       1.91D-02
@    4     -433.821776481370080       5.15D-02
@    5     -433.668157119928480       8.79D-02
@    6     -433.622663645341447       7.40D-02

   --- OUTPUT FROM SIRCNO     Keyword = FD+NO 


 Occupations of CAS natural orbitals:

 Symmetry  1 ( irrep A1  in C2v )

   1.999872545

 Symmetry  2 ( irrep B1  in C2v )

   1.999922600

 Symmetry  3 ( irrep B2  in C2v )

   1.554985140   0.493951224

 Symmetry  4 ( irrep A2  in C2v )

   1.940635267   1.432666173   0.577967050


 --- MACRO ITERATION  1 ---
 --------------------------

 2-el. integral transformation level 3: Total CPU and WALL times (sec)     106.219     106.497

 Fock matrix screening setting for this macro iteration: 10^( -9)

 Total MCSCF energy       :          -433.894846819007455  (MACRO    1)

 - Nuclear repulsion      :           410.506232977495415
 - Inactive energy        :          -827.422566746135317
 - Active energy          :           -16.978513050367557

 Norm of total gradient   :             0.785556668938
 -    of CI gradient      :             0.010809941409
 -    of orbital gradient :             0.785482288330
      Virial theorem: -V/T =      1.997221
@    MULPOP   C       1.54; C   _1  0.35; C   _2  0.35; C   _1  0.52; C   _2  0.52; C       0.44; N       0.22; O   _1 -0.77; O   _2 -0.77; H   _1 -0.49; 
@             H   _2 -0.49; H   _1 -0.47; H   _2 -0.47; H      -0.47; 

 (SIRNEO) iteration (  1,  5)
 Micro iteration termination criterion met, EVAL(ISTATE+1) = -1.88D-02

   --- OUTPUT FROM SIRCNO     Keyword = FD+NO 


 Occupations of CAS natural orbitals:

 Symmetry  1 ( irrep A1  in C2v )

   1.998122495

 Symmetry  2 ( irrep B1  in C2v )

   1.999924903

 Symmetry  3 ( irrep B2  in C2v )

   1.222701050   0.918809496

 Symmetry  4 ( irrep A2  in C2v )

   1.868323081   1.711858441   0.280260535


 --- MACRO ITERATION  2 ---
 --------------------------

 2-el. integral transformation level 3: Total CPU and WALL times (sec)     105.984     106.320

 Fock matrix screening setting for this macro iteration: 10^( -9)

 Total MCSCF energy       :          -433.965854528051295  (MACRO    2)

 - Nuclear repulsion      :           410.506232977495415
 - Inactive energy        :          -827.295548115910151
 - Active energy          :           -17.176539389636574

 Norm of total gradient   :             0.628448541423
 -    of CI gradient      :             0.317298027294
 -    of orbital gradient :             0.542466156633
      Virial theorem: -V/T =      2.002000
@    MULPOP   C       1.80; C   _1  0.21; C   _2  0.21; C   _1  0.49; C   _2  0.49; C       0.32; N       0.39; O   _1 -0.89; O   _2 -0.89; H   _1 -0.44; 
@             H   _2 -0.44; H   _1 -0.42; H   _2 -0.42; H      -0.41; 

 (SIRSTP) Energy difference;
 actual, predicted and ratio:  -0.071007709043840  -0.184646950878692    0.384559

 (SIRSTP) step is too large -- backstep

   --- OUTPUT FROM SIRCNO     Keyword = FD+NO 


 Occupations of CAS natural orbitals:

 Symmetry  1 ( irrep A1  in C2v )

   1.999096351

 Symmetry  2 ( irrep B1  in C2v )

   1.999939960

 Symmetry  3 ( irrep B2  in C2v )

   1.350226037   0.747187226

 Symmetry  4 ( irrep A2  in C2v )

   1.892210617   1.617961008   0.393378802


 Optimization control: Step was too large, we backstep


 --- MACRO ITERATION  2 BACKSTEP NO.  1 ---

 2-el. integral transformation level 3: Total CPU and WALL times (sec)     111.578     111.754

 Fock matrix screening setting for this macro iteration: 10^( -9)

 Total MCSCF energy       :          -433.999953938835233  (MACRO    2)

 - Nuclear repulsion      :           410.506232977495415
 - Inactive energy        :          -827.306580440797461
 - Active energy          :           -17.199606475533173

 Norm of total gradient   :             0.303042214405
 -    of CI gradient      :             0.182736823643
 -    of orbital gradient :             0.241747465336
      Virial theorem: -V/T =      2.001361
@    MULPOP   C       1.82; C   _1  0.22; C   _2  0.22; C   _1  0.49; C   _2  0.49; C       0.34; N       0.36; O   _1 -0.89; O   _2 -0.89; H   _1 -0.45; 
@             H   _2 -0.45; H   _1 -0.43; H   _2 -0.43; H      -0.42; 

 Residual norm when dim(red L) =  10
 NEO root     CSF        orbital          total
    1     0.04350002     0.05931548     0.07355663 converged

 (NEONEX) NEO auxiliary root no.  1 is converged.

 Residual norm when dim(red L) =  13
 NEO root     CSF        orbital          total
    2     0.04691158     0.01198792     0.04841907 converged

 (NEONEX) NEO vector is converged.

   --- OUTPUT FROM SIRCNO     Keyword = FD+NO 


 Occupations of CAS natural orbitals:

 Symmetry  1 ( irrep A1  in C2v )

   1.999730320

 Symmetry  2 ( irrep B1  in C2v )

   1.999926743

 Symmetry  3 ( irrep B2  in C2v )

   1.232786748   0.799436826

 Symmetry  4 ( irrep A2  in C2v )

   1.966573426   1.893706615   0.107839322


 --- MACRO ITERATION  3 ---
 --------------------------

 2-el. integral transformation level 3: Total CPU and WALL times (sec)     103.641     103.743

 Fock matrix screening setting for this macro iteration: 10^( -9)

 Total MCSCF energy       :          -434.045055490525215  (MACRO    3)

 - Nuclear repulsion      :           410.506232977495415
 - Inactive energy        :          -827.303258761795178
 - Active energy          :           -17.248029706225463

 Norm of total gradient   :             0.120956918159
 -    of CI gradient      :             0.061348136846
 -    of orbital gradient :             0.104244818365
      Virial theorem: -V/T =      2.000917
@    MULPOP   C       1.72; C   _1  0.25; C   _2  0.25; C   _1  0.57; C   _2  0.57; C       0.26; N       0.49; O   _1 -1.01; O   _2 -1.01; H   _1 -0.43; 
@             H   _2 -0.43; H   _1 -0.41; H   _2 -0.41; H      -0.40; 

 Residual norm when dim(red L) =  10
 NEO root     CSF        orbital          total
    1     0.04300816     0.07520206     0.08663170 converged

 (NEONEX) NEO auxiliary root no.  1 is converged.

 Residual norm when dim(red L) =  25
 NEO root     CSF        orbital          total
    2     0.01103245     0.00286820     0.01139918 converged

 (NEONEX) NEO vector is converged.

   --- OUTPUT FROM SIRCNO     Keyword = FD+NO 


 Occupations of CAS natural orbitals:

 Symmetry  1 ( irrep A1  in C2v )

   1.999796177

 Symmetry  2 ( irrep B1  in C2v )

   1.999989593

 Symmetry  3 ( irrep B2  in C2v )

   1.279529267   0.769311575

 Symmetry  4 ( irrep A2  in C2v )

   1.948429928   1.963147899   0.039795561


 --- MACRO ITERATION  4 ---
 --------------------------

 2-el. integral transformation level 3: Total CPU and WALL times (sec)     105.344     105.535

 Fock matrix screening setting for this macro iteration: 10^( -9)

 Total MCSCF energy       :          -434.053218533786321  (MACRO    4)

 - Nuclear repulsion      :           410.506232977495415
 - Inactive energy        :          -826.934021666483886
 - Active energy          :           -17.625429844797857

 Norm of total gradient   :             0.093962201221
 -    of CI gradient      :             0.035322296689
 -    of orbital gradient :             0.087070262518
      Virial theorem: -V/T =      2.000693
@    MULPOP   C       1.69; C   _1  0.27; C   _2  0.27; C   _1  0.61; C   _2  0.61; C       0.22; N       0.50; O   _1 -1.05; O   _2 -1.05; H   _1 -0.42; 
@             H   _2 -0.42; H   _1 -0.41; H   _2 -0.41; H      -0.40; 

 Residual norm when dim(red L) =  10
 NEO root     CSF        orbital          total
    1     0.04244813     0.08961860     0.09916319 converged

 (NEONEX) NEO auxiliary root no.  1 is converged.

 Residual norm when dim(red L) =  14
 NEO root     CSF        orbital          total
    2     0.01319678     0.00256339     0.01344344 converged

 (NEONEX) NEO vector is converged.

   --- OUTPUT FROM SIRCNO     Keyword = FD+NO 


 Occupations of CAS natural orbitals:

 Symmetry  1 ( irrep A1  in C2v )

   1.999734479

 Symmetry  2 ( irrep B1  in C2v )

   1.999996505

 Symmetry  3 ( irrep B2  in C2v )

   1.257489451   0.782767190

 Symmetry  4 ( irrep A2  in C2v )

   1.953019989   1.962212149   0.044780237


 --- MACRO ITERATION  5 ---
 --------------------------

 2-el. integral transformation level 3: Total CPU and WALL times (sec)     102.922     103.105

 Fock matrix screening setting for this macro iteration: 10^( -9)

 Total MCSCF energy       :          -434.055403845766193  (MACRO    5)

 - Nuclear repulsion      :           410.506232977495415
 - Inactive energy        :          -826.695788949040320
 - Active energy          :           -17.865847874221270

 Norm of total gradient   :             0.015835659582
 -    of CI gradient      :             0.014588093104
 -    of orbital gradient :             0.006160816016
      Virial theorem: -V/T =      2.000562
@    MULPOP   C       1.77; C   _1  0.24; C   _2  0.24; C   _1  0.60; C   _2  0.60; C       0.25; N       0.49; O   _1 -1.05; O   _2 -1.05; H   _1 -0.42; 
@             H   _2 -0.42; H   _1 -0.42; H   _2 -0.42; H      -0.41; 

 Residual norm when dim(red L) =   8
 NEO root     CSF        orbital          total
    1     0.04516002     0.06154364     0.07633510 converged

 (NEONEX) NEO auxiliary root no.  1 is converged.

 Residual norm when dim(red L) =  17
 NEO root     CSF        orbital          total
    2     0.00180000     0.00087503     0.00200142 converged

 (NEONEX) NEO vector is converged.

   --- OUTPUT FROM SIRCNO     Keyword = FD+NO 


 Occupations of CAS natural orbitals:

 Symmetry  1 ( irrep A1  in C2v )

   1.998546666

 Symmetry  2 ( irrep B1  in C2v )

   1.999996059

 Symmetry  3 ( irrep B2  in C2v )

   1.256015689   0.784729479

 Symmetry  4 ( irrep A2  in C2v )

   1.955173665   1.964494639   0.041043803


 --- MACRO ITERATION  6 ---
 --------------------------

 2-el. integral transformation level 3: Total CPU and WALL times (sec)     103.219     103.314

 Fock matrix screening setting for this macro iteration: 10^( -9)

 Total MCSCF energy       :          -434.055515951920711  (MACRO    6)

 - Nuclear repulsion      :           410.506232977495415
 - Inactive energy        :          -826.248880591784655
 - Active energy          :           -18.312868337631468

 Norm of total gradient   :             0.022229196711
 -    of CI gradient      :             0.022164386733
 -    of orbital gradient :             0.001696215541
      Virial theorem: -V/T =      2.000559
@    MULPOP   C       1.77; C   _1  0.24; C   _2  0.24; C   _1  0.60; C   _2  0.60; C       0.25; N       0.49; O   _1 -1.05; O   _2 -1.05; H   _1 -0.42; 
@             H   _2 -0.42; H   _1 -0.42; H   _2 -0.42; H      -0.41; 

 (SIRSTP) Energy difference;
 actual, predicted and ratio:  -0.000112106154518  -0.000391176036366    0.286587

 (SIRSTP) step is too large -- backstep

   --- OUTPUT FROM SIRCNO     Keyword = FD+NO 


 Occupations of CAS natural orbitals:

 Symmetry  1 ( irrep A1  in C2v )

   1.998859428

 Symmetry  2 ( irrep B1  in C2v )

   1.999997308

 Symmetry  3 ( irrep B2  in C2v )

   1.256187985   0.784399419

 Symmetry  4 ( irrep A2  in C2v )

   1.955022546   1.964416931   0.041116383


 Optimization control: Step was too large, we backstep


 --- MACRO ITERATION  6 BACKSTEP NO.  1 ---

 2-el. integral transformation level 3: Total CPU and WALL times (sec)     104.953     105.304

 Fock matrix screening setting for this macro iteration: 10^( -9)

 Total MCSCF energy       :          -434.055579353070470  (MACRO    6)

 - Nuclear repulsion      :           410.506232977495415
 - Inactive energy        :          -826.294066013094493
 - Active energy          :           -18.267746317471381

 Norm of total gradient   :             0.013329799129
 -    of CI gradient      :             0.013245097200
 -    of orbital gradient :             0.001500314960
      Virial theorem: -V/T =      2.000560
@    MULPOP   C       1.77; C   _1  0.24; C   _2  0.24; C   _1  0.60; C   _2  0.60; C       0.25; N       0.49; O   _1 -1.05; O   _2 -1.05; H   _1 -0.42; 
@             H   _2 -0.42; H   _1 -0.42; H   _2 -0.42; H      -0.41; 

 Residual norm when dim(red L) =   8
 NEO root     CSF        orbital          total
    1     0.04400283     0.07261514     0.08490705 converged

 (NEONEX) NEO auxiliary root no.  1 is converged.

 Residual norm when dim(red L) =  17
 NEO root     CSF        orbital          total
    2     0.00172982     0.00091904     0.00195881 converged

 (NEONEX) NEO vector is converged.

   --- OUTPUT FROM SIRCNO     Keyword = FD+NO 


 Occupations of CAS natural orbitals:

 Symmetry  1 ( irrep A1  in C2v )

   1.999682320

 Symmetry  2 ( irrep B1  in C2v )

   1.999995596

 Symmetry  3 ( irrep B2  in C2v )

   1.258649676   0.781672954

 Symmetry  4 ( irrep A2  in C2v )

   1.954420859   1.964238491   0.041340104


 --- MACRO ITERATION  7 ---
 --------------------------

 2-el. integral transformation level 3: Total CPU and WALL times (sec)     113.047     113.218

 Fock matrix screening setting for this macro iteration: 10^( -9)

 Total MCSCF energy       :          -434.055628633536401  (MACRO    7)

 - Nuclear repulsion      :           410.506232977495415
 - Inactive energy        :          -826.007082558503157
 - Active energy          :           -18.554779052528684

 Norm of total gradient   :             0.007136895915
 -    of CI gradient      :             0.007050348909
 -    of orbital gradient :             0.001108090051
      Virial theorem: -V/T =      2.000564
@    MULPOP   C       1.77; C   _1  0.24; C   _2  0.24; C   _1  0.60; C   _2  0.60; C       0.25; N       0.49; O   _1 -1.05; O   _2 -1.05; H   _1 -0.42; 
@             H   _2 -0.42; H   _1 -0.42; H   _2 -0.42; H      -0.41; 

 Residual norm when dim(red L) =   8
 NEO root     CSF        orbital          total
    1     0.04200897     0.07502826     0.08598833 converged

 (NEONEX) NEO auxiliary root no.  1 is converged.

 (SIRNEO) iteration (  7,  9)
 Micro iteration termination criterion met, EVAL(ISTATE+1) = -2.36D-05

   --- OUTPUT FROM SIRCNO     Keyword = FD+NO 


 Occupations of CAS natural orbitals:

 Symmetry  1 ( irrep A1  in C2v )

   1.999481713

 Symmetry  2 ( irrep B1  in C2v )

   1.999983969

 Symmetry  3 ( irrep B2  in C2v )

   1.256845774   0.783318760

 Symmetry  4 ( irrep A2  in C2v )

   1.954729493   1.964275027   0.041365265


 --- MACRO ITERATION  8 ---
 --------------------------

 2-el. integral transformation level 3: Total CPU and WALL times (sec)     109.750     109.948

 Fock matrix screening setting for this macro iteration: 10^( -9)

 Total MCSCF energy       :          -434.055663259710002  (MACRO    8)

 - Nuclear repulsion      :           410.506232977495415
 - Inactive energy        :          -826.237234230075842
 - Active energy          :           -18.324662007129575

 Norm of total gradient   :             0.004147174380
[...]
      ----------------------------------------------------------------
         1    1.54468D+01  5.80D+00  1.43D+01  5.28D+02    1.16800D-01

 ** RSPCTL MICROITERATION NUMBER   11

 *** INFO, negative eigenvalues in reduced matrix. Symmetry  1,  triplet       F Dimension of reduced matrix =    24

 GP * SOLUTION vector at frequency     0.11680 a.u.
 after   12 linear transformations is      2.37044996D+04
 INERTIA (POS,ZER,NEG) of reduced matrix is   22    0    2
 Determinant of reduced matrix is  2.44 * 10 **-17.0

       No.  Residual tot.,    conf., and orb.    Bnorm      Frequency 
      ----------------------------------------------------------------
         1    7.32293D+01  4.12D+01  6.05D+01  1.01D+03    1.16800D-01

 ** RSPCTL MICROITERATION NUMBER   12

 *** INFO, negative eigenvalues in reduced matrix. Symmetry  1,  triplet       F Dimension of reduced matrix =    26

 GP * SOLUTION vector at frequency     0.11680 a.u.
 after   13 linear transformations is      2.12239009D+04
 INERTIA (POS,ZER,NEG) of reduced matrix is   23    0    3
 Determinant of reduced matrix is -4.33 * 10 **-20.0

       No.  Residual tot.,    conf., and orb.    Bnorm      Frequency 
      ----------------------------------------------------------------
         1    4.86544D+01  3.70D+01  3.16D+01  8.21D+02    1.16800D-01

 ** RSPCTL MICROITERATION NUMBER   13

 *** INFO, negative eigenvalues in reduced matrix. Symmetry  1,  triplet       F Dimension of reduced matrix =    28

 GP * SOLUTION vector at frequency     0.11680 a.u.
 after   14 linear transformations is      2.21185215D+04
 INERTIA (POS,ZER,NEG) of reduced matrix is   25    0    3
 Determinant of reduced matrix is -1.83 * 10 **-20.0

       No.  Residual tot.,    conf., and orb.    Bnorm      Frequency 
      ----------------------------------------------------------------
         1    1.15593D+01  5.84D+00  9.98D+00  5.10D+02    1.16800D-01

 ** RSPCTL MICROITERATION NUMBER   14

 *** INFO, negative eigenvalues in reduced matrix. Symmetry  1,  triplet       F Dimension of reduced matrix =    30

 GP * SOLUTION vector at frequency     0.11680 a.u.
 after   15 linear transformations is      2.21908492D+04
 INERTIA (POS,ZER,NEG) of reduced matrix is   27    0    3
 Determinant of reduced matrix is -8.23 * 10 **-23.0

       No.  Residual tot.,    conf., and orb.    Bnorm      Frequency 
      ----------------------------------------------------------------
         1    7.55245D+00  5.27D+00  5.41D+00  5.00D+02    1.16800D-01

 ** RSPCTL MICROITERATION NUMBER   15

 *** INFO, negative eigenvalues in reduced matrix. Symmetry  1,  triplet       F Dimension of reduced matrix =    32

 GP * SOLUTION vector at frequency     0.11680 a.u.
 after   16 linear transformations is      2.22065457D+04
 INERTIA (POS,ZER,NEG) of reduced matrix is   29    0    3
 Determinant of reduced matrix is -4.17 * 10 **-25.0

       No.  Residual tot.,    conf., and orb.    Bnorm      Frequency 
      ----------------------------------------------------------------
         1    5.96237D+00  5.24D+00  2.84D+00  4.98D+02    1.16800D-01

 ** RSPCTL MICROITERATION NUMBER   16

 *** INFO, negative eigenvalues in reduced matrix. Symmetry  1,  triplet       F Dimension of reduced matrix =    34

 GP * SOLUTION vector at frequency     0.11680 a.u.
 after   17 linear transformations is      2.22234170D+04
 INERTIA (POS,ZER,NEG) of reduced matrix is   31    0    3
 Determinant of reduced matrix is -1.34 * 10 **-25.0

       No.  Residual tot.,    conf., and orb.    Bnorm      Frequency 
      ----------------------------------------------------------------
         1    5.11038D+00  3.78D+00  3.44D+00  4.97D+02    1.16800D-01

 ** RSPCTL MICROITERATION NUMBER   17

 *** INFO, negative eigenvalues in reduced matrix. Symmetry  1,  triplet       F Dimension of reduced matrix =    36

 GP * SOLUTION vector at frequency     0.11680 a.u.
 after   18 linear transformations is      2.22420767D+04
 INERTIA (POS,ZER,NEG) of reduced matrix is   33    0    3
 Determinant of reduced matrix is -4.30 * 10 **-26.0

       No.  Residual tot.,    conf., and orb.    Bnorm      Frequency 
      ----------------------------------------------------------------
         1    4.76997D+00  4.70D-01  4.75D+00  4.98D+02    1.16800D-01

 ** RSPCTL MICROITERATION NUMBER   18

 *** INFO, negative eigenvalues in reduced matrix. Symmetry  1,  triplet       F Dimension of reduced matrix =    38

 GP * SOLUTION vector at frequency     0.11680 a.u.
 after   19 linear transformations is      2.22545016D+04
 INERTIA (POS,ZER,NEG) of reduced matrix is   35    0    3
 Determinant of reduced matrix is -3.55 * 10 **-28.0

       No.  Residual tot.,    conf., and orb.    Bnorm      Frequency 
      ----------------------------------------------------------------
         1    2.31540D+00  1.28D+00  1.93D+00  4.96D+02    1.16800D-01

 ** RSPCTL MICROITERATION NUMBER   19

 *** INFO, negative eigenvalues in reduced matrix. Symmetry  1,  triplet       F Dimension of reduced matrix =    40

 GP * SOLUTION vector at frequency     0.11680 a.u.
 after   20 linear transformations is      2.22569027D+04
 INERTIA (POS,ZER,NEG) of reduced matrix is   37    0    3
 Determinant of reduced matrix is -1.43 * 10 **-30.0

       No.  Residual tot.,    conf., and orb.    Bnorm      Frequency 
      ----------------------------------------------------------------
         1    1.57505D+00  1.39D+00  7.33D-01  4.96D+02    1.16800D-01

 ** RSPCTL MICROITERATION NUMBER   20

 *** INFO, negative eigenvalues in reduced matrix. Symmetry  1,  triplet       F Dimension of reduced matrix =    42

 GP * SOLUTION vector at frequency     0.11680 a.u.
 after   21 linear transformations is      2.22595319D+04
 INERTIA (POS,ZER,NEG) of reduced matrix is   39    0    3
 Determinant of reduced matrix is -4.72 * 10 **-31.0

       No.  Residual tot.,    conf., and orb.    Bnorm      Frequency 
      ----------------------------------------------------------------
         1    1.10225D+00  5.08D-01  9.78D-01  4.96D+02    1.16800D-01

 ** RSPCTL MICROITERATION NUMBER   21

 *** INFO, negative eigenvalues in reduced matrix. Symmetry  1,  triplet       F Dimension of reduced matrix =    44

 GP * SOLUTION vector at frequency     0.11680 a.u.
 after   22 linear transformations is      2.22604837D+04
 INERTIA (POS,ZER,NEG) of reduced matrix is   41    0    3
 Determinant of reduced matrix is -8.17 * 10 **-34.0

       No.  Residual tot.,    conf., and orb.    Bnorm      Frequency 
      ----------------------------------------------------------------
         1    8.32085D-01  6.00D-01  5.77D-01  4.96D+02    1.16800D-01

 ** RSPCTL MICROITERATION NUMBER   22

 *** INFO, negative eigenvalues in reduced matrix. Symmetry  1,  triplet       F Dimension of reduced matrix =    46

 GP * SOLUTION vector at frequency     0.11680 a.u.
 after   23 linear transformations is      2.22607974D+04
 INERTIA (POS,ZER,NEG) of reduced matrix is   43    0    3
 Determinant of reduced matrix is -1.57 * 10 **-34.0

       No.  Residual tot.,    conf., and orb.    Bnorm      Frequency 
      ----------------------------------------------------------------
         1    6.32637D-01  2.53D-01  5.80D-01  4.96D+02    1.16800D-01

 ** RSPCTL MICROITERATION NUMBER   23

 *** INFO, negative eigenvalues in reduced matrix. Symmetry  1,  triplet       F Dimension of reduced matrix =    48

 GP * SOLUTION vector at frequency     0.11680 a.u.
 after   24 linear transformations is      2.22611160D+04
 INERTIA (POS,ZER,NEG) of reduced matrix is   45    0    3
 Determinant of reduced matrix is -6.72 * 10 **-37.0

       No.  Residual tot.,    conf., and orb.    Bnorm      Frequency 
      ----------------------------------------------------------------
         1    5.22934D-01  2.96D-01  4.31D-01  4.96D+02    1.16800D-01

 ** RSPCTL MICROITERATION NUMBER   24

 *** INFO, negative eigenvalues in reduced matrix. Symmetry  1,  triplet       F Dimension of reduced matrix =    50

 GP * SOLUTION vector at frequency     0.11680 a.u.
 after   25 linear transformations is      2.22612400D+04
 INERTIA (POS,ZER,NEG) of reduced matrix is   47    0    3
 Determinant of reduced matrix is -1.21 * 10 **-38.0

       No.  Residual tot.,    conf., and orb.    Bnorm      Frequency 
      ----------------------------------------------------------------
         1    3.62876D-01  3.10D-01  1.89D-01  4.96D+02    1.16800D-01

 *** THE REQUESTED    1 SOLUTION VECTORS CONVERGED

 Convergence of RSP solution vectors, threshold = 1.00D-03
 ---------------------------------------------------------------
 (dimension of paired reduced space:   50)
 RSP solution vector no.    1; norm of residual   7.32D-04

 *** RSPCTL MICROITERATIONS CONVERGED
    YDIPLEN     YDIPLEN      freq1     freq2                Norm
 ---------------------------------------------------------------
                          0.058400  0.058400        495.78658300
  Time used in CRVEC2     is       3 hours 11 minutes 14 seconds


 ----- CALCULATING CONTRIBUTIONS TO SECOND HYPERPOLARIZABILITY -----


   Contribution                Term         Accumulated
 ------------------------------------------------------
 Na T[4] Nb Nc Nd 63727028.28225043   63727028.28225043
 Na T[3] Nx Nyz -160472107.55128244  -96745079.26903200
 Na X[3] Ny Nz     9181275.16842018  -87563804.10061181
 Nx A[3] Ny Nz     3060425.05614007  -84503379.04447173
 Na X[2] Nyz      -7822307.03380671  -92325686.07827844
 Nx A[2] Nyz      -8011065.04216854 -100336751.12044698

@ Cubic response function value in a.u. for
@ A operator, symmetry, frequency:   ZDIPLEN    1 -0.058400
@ B operator, symmetry, frequency:   ZDIPLEN    1  0.058400
@ C operator, symmetry, frequency:   ZDIPLEN    1 -0.058400
@ D operator, symmetry, frequency:   ZDIPLEN    1  0.058400

@ << A; B, C, D >>  =  -100336751.12044698



   Contribution                Term         Accumulated
 ------------------------------------------------------
 Na T[4] Nb Nc Nd 13620826.97398038   13620826.97398038
 Na T[3] Nx Nyz  -50545065.11724858  -36924238.14326820
 Na X[3] Ny Nz     -448993.25204577  -37373231.39531396
 Nx A[3] Ny Nz      127064.32381247  -37246167.07150149
 Na X[2] Nyz      -3897660.58599683  -41143827.65749832
 Nx A[2] Nyz      12440878.57255907  -28702949.08493926

@ Cubic response function value in a.u. for
@ A operator, symmetry, frequency:   XDIPLEN    2 -0.058400
@ B operator, symmetry, frequency:   XDIPLEN    2  0.058400
@ C operator, symmetry, frequency:   ZDIPLEN    1 -0.058400
@ D operator, symmetry, frequency:   ZDIPLEN    1  0.058400

@ << A; B, C, D >>  =   -28702949.08493926



   Contribution                Term         Accumulated
 ------------------------------------------------------
 Na T[4] Nb Nc Nd   -42057.07541914     -42057.07541914
 Na T[3] Nx Nyz     -10927.79419598     -52984.86961512
 Na X[3] Ny Nz       65932.76414106      12947.89452593
 Nx A[3] Ny Nz       31857.70440214      44805.59892807
 Na X[2] Nyz         26471.13840768      71276.73733575
 Nx A[2] Nyz        -10047.11801294      61229.61932281

@ Cubic response function value in a.u. for
@ A operator, symmetry, frequency:   YDIPLEN    3 -0.058400
@ B operator, symmetry, frequency:   YDIPLEN    3  0.058400
@ C operator, symmetry, frequency:   ZDIPLEN    1 -0.058400
@ D operator, symmetry, frequency:   ZDIPLEN    1  0.058400

@ << A; B, C, D >>  =       61229.61932281



   Contribution                Term         Accumulated
 ------------------------------------------------------
 Na T[4] Nb Nc Nd-15237320.69155952  -15237320.69155952
 Na T[3] Nx Nyz   71901790.01302366   56664469.32146414
 Na X[3] Ny Nz     1068631.94892560   57733101.27038974
 Nx A[3] Ny Nz      -63640.49285737   57669460.77753238
 Na X[2] Nyz      20273852.07293923   77943312.85047162
 Nx A[2] Nyz      20968411.45460891   98911724.30508053

@ Cubic response function value in a.u. for
@ A operator, symmetry, frequency:   XDIPLEN    2 -0.058400
@ B operator, symmetry, frequency:   ZDIPLEN    1  0.058400
@ C operator, symmetry, frequency:   XDIPLEN    2 -0.058400
@ D operator, symmetry, frequency:   ZDIPLEN    1  0.058400

@ << A; B, C, D >>  =    98911724.30508053



   Contribution                Term         Accumulated
 ------------------------------------------------------
 Na T[4] Nb Nc Nd   -31739.27175477     -31739.27175477
 Na T[3] Nx Nyz      11251.84972548     -20487.42202928
 Na X[3] Ny Nz       52115.19967447      31627.77764519
 Nx A[3] Ny Nz       25221.80739464      56849.58503983
 Na X[2] Nyz        -35446.62888727      21402.95615256
 Nx A[2] Nyz        -82749.63547860     -61346.67932604

@ Cubic response function value in a.u. for
@ A operator, symmetry, frequency:   YDIPLEN    3 -0.058400
@ B operator, symmetry, frequency:   ZDIPLEN    1  0.058400
@ C operator, symmetry, frequency:   YDIPLEN    3 -0.058400
@ D operator, symmetry, frequency:   ZDIPLEN    1  0.058400

@ << A; B, C, D >>  =      -61346.67932604



   Contribution                Term         Accumulated
 ------------------------------------------------------
 Na T[4] Nb Nc Nd-20556462.09728783  -20556462.09728783
 Na T[3] Nx Nyz   88885778.34785546   68329316.25056763
 Na X[3] Ny Nz    -1092736.81161512   67236579.43895252
 Nx A[3] Ny Nz       55605.53862753   67292184.97758006
 Na X[2] Nyz      15474892.97509660   82767077.95267665
 Nx A[2] Nyz      16262276.48402179   99029354.43669845

@ Cubic response function value in a.u. for
@ A operator, symmetry, frequency:   ZDIPLEN    1 -0.058400
@ B operator, symmetry, frequency:   XDIPLEN    2  0.058400
@ C operator, symmetry, frequency:   ZDIPLEN    1 -0.058400
@ D operator, symmetry, frequency:   XDIPLEN    2  0.058400

@ << A; B, C, D >>  =    99029354.43669845



   Contribution                Term         Accumulated
 ------------------------------------------------------
 Na T[4] Nb Nc Nd 66940621.17769312   66940621.17769312
 Na T[3] Nx Nyz  -18607513.64928249   48333107.52841063
 Na X[3] Ny Nz      459146.86480121   48792254.39321183
 Nx A[3] Ny Nz      153048.95493374   48945303.34814557
 Na X[2] Nyz       -325520.33865751   48619783.00948807
 Nx A[2] Nyz       -693038.63725315   47926744.37223492

@ Cubic response function value in a.u. for
@ A operator, symmetry, frequency:   XDIPLEN    2 -0.058400
@ B operator, symmetry, frequency:   XDIPLEN    2  0.058400
@ C operator, symmetry, frequency:   XDIPLEN    2 -0.058400
@ D operator, symmetry, frequency:   XDIPLEN    2  0.058400

@ << A; B, C, D >>  =    47926744.37223492



   Contribution                Term         Accumulated
 ------------------------------------------------------
 Na T[4] Nb Nc Nd   -69005.57176015     -69005.57176015
 Na T[3] Nx Nyz     -46048.46753351    -115054.03929366
 Na X[3] Ny Nz      129312.90503106      14258.86573740
 Nx A[3] Ny Nz       46500.01714163      60758.88287903
 Na X[2] Nyz        -31882.96028129      28875.92259773
 Nx A[2] Nyz        -93893.64184243     -65017.71924470

@ Cubic response function value in a.u. for
@ A operator, symmetry, frequency:   YDIPLEN    3 -0.058400
@ B operator, symmetry, frequency:   YDIPLEN    3  0.058400
@ C operator, symmetry, frequency:   XDIPLEN    2 -0.058400
@ D operator, symmetry, frequency:   XDIPLEN    2  0.058400

@ << A; B, C, D >>  =      -65017.71924470



   Contribution                Term         Accumulated
 ------------------------------------------------------
 Na T[4] Nb Nc Nd    63593.02180626      63593.02180626
 Na T[3] Nx Nyz      32837.96075946      96430.98256572
 Na X[3] Ny Nz     -120584.57998910     -24153.59742338
 Nx A[3] Ny Nz      -43539.38385397     -67692.98127735
 Na X[2] Nyz         42023.43316640     -25669.54811095
 Nx A[2] Nyz        104220.62252107      78551.07441011

@ Cubic response function value in a.u. for
@ A operator, symmetry, frequency:   YDIPLEN    3 -0.058400
@ B operator, symmetry, frequency:   XDIPLEN    2  0.058400
@ C operator, symmetry, frequency:   YDIPLEN    3 -0.058400
@ D operator, symmetry, frequency:   XDIPLEN    2  0.058400

@ << A; B, C, D >>  =       78551.07441011



   Contribution                Term         Accumulated
 ------------------------------------------------------
 Na T[4] Nb Nc Nd   -11836.47423929     -11836.47423929
 Na T[3] Nx Nyz      -9189.46409082     -21025.93833012
 Na X[3] Ny Nz       23285.39065409       2259.45232397
 Nx A[3] Ny Nz         -88.27728512       2171.17503885
 Na X[2] Nyz        -44617.89959594     -42446.72455709
 Nx A[2] Nyz        -16911.43956636     -59358.16412345

@ Cubic response function value in a.u. for
@ A operator, symmetry, frequency:   ZDIPLEN    1 -0.058400
@ B operator, symmetry, frequency:   YDIPLEN    3  0.058400
@ C operator, symmetry, frequency:   ZDIPLEN    1 -0.058400
@ D operator, symmetry, frequency:   YDIPLEN    3  0.058400

@ << A; B, C, D >>  =      -59358.16412345



   Contribution                Term         Accumulated
 ------------------------------------------------------
 Na T[4] Nb Nc Nd     6084.26707805       6084.26707805
 Na T[3] Nx Nyz     100002.67466081     106086.94173886
 Na X[3] Ny Nz       -8137.55078674      97949.39095211
 Nx A[3] Ny Nz         632.00692869      98581.39788080
 Na X[2] Nyz        -10125.20256384      88456.19531697
 Nx A[2] Nyz        -10920.63036101      77535.56495596

@ Cubic response function value in a.u. for
@ A operator, symmetry, frequency:   XDIPLEN    2 -0.058400
@ B operator, symmetry, frequency:   YDIPLEN    3  0.058400
@ C operator, symmetry, frequency:   XDIPLEN    2 -0.058400
@ D operator, symmetry, frequency:   YDIPLEN    3  0.058400

@ << A; B, C, D >>  =       77535.56495596



   Contribution                Term         Accumulated
 ------------------------------------------------------
 Na T[4] Nb Nc Nd     -540.15979928       -540.15979928
 Na T[3] Nx Nyz       6332.69638719       5792.53658791
 Na X[3] Ny Nz        2439.42576830       8231.96235621
 Nx A[3] Ny Nz         813.14192277       9045.10427898
 Na X[2] Nyz        -24372.93351596     -15327.82923698
 Nx A[2] Nyz        -24485.76659180     -39813.59582879

@ Cubic response function value in a.u. for
@ A operator, symmetry, frequency:   YDIPLEN    3 -0.058400
@ B operator, symmetry, frequency:   YDIPLEN    3  0.058400
@ C operator, symmetry, frequency:   YDIPLEN    3 -0.058400
@ D operator, symmetry, frequency:   YDIPLEN    3  0.058400

@ << A; B, C, D >>  =      -39813.59582879



  Summary of gamma values for a set of frequencies
 -------------------------------------------------

@ B-freq:  0.058400
@ C-freq: -0.058400
@ D-freq:  0.058400

@ gamma(X;X,X,X)  -47926744.3722
@ gamma(X;X,Y,Y)      65017.7192
@ gamma(X;Y,Y,X)      65017.7192
@ gamma(X;Y,X,Y)     -77535.5650
@ gamma(X;X,Z,Z)   28702949.0849
@ gamma(X;Z,Z,X)   28702949.0849
@ gamma(X;Z,X,Z)  -98911724.3051
@ gamma(Y;Y,X,X)      65017.7192
@ gamma(Y;X,X,Y)      65017.7192
@ gamma(Y;X,Y,X)     -78551.0744
@ gamma(Y;Y,Y,Y)      39813.5958
@ gamma(Y;Y,Z,Z)     -61229.6193
@ gamma(Y;Z,Z,Y)     -61229.6193
@ gamma(Y;Z,Y,Z)      61346.6793
@ gamma(Z;Z,X,X)   28702949.0849
@ gamma(Z;X,X,Z)   28702949.0849
@ gamma(Z;X,Z,X)  -99029354.4367
@ gamma(Z;Z,Y,Y)     -61229.6193
@ gamma(Z;Y,Y,Z)     -61229.6193
@ gamma(Z;Y,Z,Y)      59358.1641
@ gamma(Z;Z,Z,Z)  100336751.1204

@ Averaged gamma parallel to the applied field is   4946663.282258

  Total CPU  time used in RESPONSE:   8 hours 13 minutes 21 seconds
  Total wall time used in RESPONSE:   8 hours 13 minutes 50 seconds


                   .-------------------------------------------.
                   | End of Dynamic Property Section (RESPONS) |
                   `-------------------------------------------'

  Total CPU  time used in DALTON:  10 hours 50 minutes 27 seconds
  Total wall time used in DALTON:  10 hours 51 minutes 15 seconds

 
     Date and time (Linux)  : Fri Feb 28 23:12:35 2020
     Host name              : Lab2-333-NPs                            
