

     ************************************************************************
     *************** Dalton - An Electronic Structure Program ***************
     ************************************************************************

    This is output from DALTON release Dalton2018.1 (2019)
         ( Web site: http://daltonprogram.org )

   ----------------------------------------------------------------------------

    NOTE:
     
    Dalton is an experimental code for the evaluation of molecular
    properties using (MC)SCF, DFT, CI, and CC wave functions.
    The authors accept no responsibility for the performance of
    the code or for the correctness of the results.
     
    The code (in whole or part) is provided under a licence and
    is not to be reproduced for further distribution without
    the written permission of the authors or their representatives.
     
    See the home page "http://daltonprogram.org" for further information.
     
    If results obtained with this code are published,
    the appropriate citations would be both of:
     
       K. Aidas, C. Angeli, K. L. Bak, V. Bakken, R. Bast,
       L. Boman, O. Christiansen, R. Cimiraglia, S. Coriani,
       P. Dahle, E. K. Dalskov, U. Ekstroem,
       T. Enevoldsen, J. J. Eriksen, P. Ettenhuber, B. Fernandez,
       L. Ferrighi, H. Fliegl, L. Frediani, K. Hald, A. Halkier,
       C. Haettig, H. Heiberg, T. Helgaker, A. C. Hennum,
       H. Hettema, E. Hjertenaes, S. Hoest, I.-M. Hoeyvik,
       M. F. Iozzi, B. Jansik, H. J. Aa. Jensen, D. Jonsson,
       P. Joergensen, J. Kauczor, S. Kirpekar,
       T. Kjaergaard, W. Klopper, S. Knecht, R. Kobayashi, H. Koch,
       J. Kongsted, A. Krapp, K. Kristensen, A. Ligabue,
       O. B. Lutnaes, J. I. Melo, K. V. Mikkelsen, R. H. Myhre,
       C. Neiss, C. B. Nielsen, P. Norman, J. Olsen,
       J. M. H. Olsen, A. Osted, M. J. Packer, F. Pawlowski,
       T. B. Pedersen, P. F. Provasi, S. Reine, Z. Rinkevicius,
       T. A. Ruden, K. Ruud, V. Rybkin, P. Salek, C. C. M. Samson,
       A. Sanchez de Meras, T. Saue, S. P. A. Sauer,
       B. Schimmelpfennig, K. Sneskov, A. H. Steindal,
       K. O. Sylvester-Hvid, P. R. Taylor, A. M. Teale,
       E. I. Tellgren, D. P. Tew, A. J. Thorvaldsen, L. Thoegersen,
       O. Vahtras, M. A. Watson, D. J. D. Wilson, M. Ziolkowski
       and H. Agren,
       "The Dalton quantum chemistry program system",
       WIREs Comput. Mol. Sci. 2014, 4:269–284 (doi: 10.1002/wcms.1172)
     
    and
     
       Dalton, a molecular electronic structure program,
       Release Dalton2018.1 (2019), see http://daltonprogram.org
   ----------------------------------------------------------------------------

    Authors in alphabetical order (major contribution(s) in parenthesis):

  Kestutis Aidas,           Vilnius University,           Lithuania   (QM/MM)
  Celestino Angeli,         University of Ferrara,        Italy       (NEVPT2)
  Keld L. Bak,              UNI-C,                        Denmark     (AOSOPPA, non-adiabatic coupling, magnetic properties)
  Vebjoern Bakken,          University of Oslo,           Norway      (DALTON; geometry optimizer, symmetry detection)
  Radovan Bast,             UiT The Arctic U. of Norway,  Norway      (DALTON installation and execution frameworks)
  Pablo Baudin,             University of Valencia,       Spain       (Cholesky excitation energies)
  Linus Boman,              NTNU,                         Norway      (Cholesky decomposition and subsystems)
  Ove Christiansen,         Aarhus University,            Denmark     (CC module)
  Renzo Cimiraglia,         University of Ferrara,        Italy       (NEVPT2)
  Sonia Coriani,            Technical Univ. of Denmark,   Denmark     (CC module, MCD in RESPONS)
  Janusz Cukras,            University of Trieste,        Italy       (MChD in RESPONS)
  Paal Dahle,               University of Oslo,           Norway      (Parallelization)
  Erik K. Dalskov,          UNI-C,                        Denmark     (SOPPA)
  Thomas Enevoldsen,        Univ. of Southern Denmark,    Denmark     (SOPPA)
  Janus J. Eriksen,         Aarhus University,            Denmark     (Polarizable embedding model, TDA)
  Rasmus Faber,             University of Copenhagen,     Denmark     (Vib.avg. NMR with SOPPA, parallel AO-SOPPA)
  Tobias Fahleson,          KTH Stockholm,                Sweden      (Damped cubic response)
  Berta Fernandez,          U. of Santiago de Compostela, Spain       (doublet spin, ESR in RESPONS)
  Lara Ferrighi,            Aarhus University,            Denmark     (PCM Cubic response)
  Heike Fliegl,             University of Oslo,           Norway      (CCSD(R12))
  Luca Frediani,            UiT The Arctic U. of Norway,  Norway      (PCM)
  Bin Gao,                  UiT The Arctic U. of Norway,  Norway      (Gen1Int library)
  Christof Haettig,         Ruhr-University Bochum,       Germany     (CC module)
  Kasper Hald,              Aarhus University,            Denmark     (CC module)
  Asger Halkier,            Aarhus University,            Denmark     (CC module)
  Frederik Beyer Hansen,    University of Copenhagen,     Denmark     (Parallel AO-SOPPA)
  Erik D. Hedegaard,        Univ. of Southern Denmark,    Denmark     (Polarizable embedding model, QM/MM)
  Hanne Heiberg,            University of Oslo,           Norway      (geometry analysis, selected one-electron integrals)
  Trygve Helgaker,          University of Oslo,           Norway      (DALTON; ABACUS, ERI, DFT modules, London, and much more)
  Alf Christian Hennum,     University of Oslo,           Norway      (Parity violation)
  Hinne Hettema,            University of Auckland,       New Zealand (quadratic response in RESPONS; SIRIUS supersymmetry)
  Eirik Hjertenaes,         NTNU,                         Norway      (Cholesky decomposition)
  Pi A. B. Haase,           University of Copenhagen,     Denmark     (Triplet AO-SOPPA)
  Maria Francesca Iozzi,    University of Oslo,           Norway      (RPA)
  Christoph Jacob           TU Braunschweig               Germany     (Frozen density embedding model)
  Brano Jansik              Technical Univ. of Ostrava    Czech Rep.  (DFT cubic response)
  Hans Joergen Aa. Jensen,  Univ. of Southern Denmark,    Denmark     (DALTON; SIRIUS, RESPONS, ABACUS modules, London, and much more)
  Dan Jonsson,              UiT The Arctic U. of Norway,  Norway      (cubic response in RESPONS module)
  Poul Joergensen,          Aarhus University,            Denmark     (RESPONS, ABACUS, and CC modules)
  Maciej Kaminski,          University of Warsaw,         Poland      (CPPh in RESPONS)
  Joanna Kauczor,           Linkoeping University,        Sweden      (Complex polarization propagator (CPP) module)
  Sheela Kirpekar,          Univ. of Southern Denmark,    Denmark     (Mass-velocity & Darwin integrals)
  Wim Klopper,              KIT Karlsruhe,                Germany     (R12 code in CC, SIRIUS, and ABACUS modules)
  Stefan Knecht,            ETH Zurich,                   Switzerland (Parallel CI and MCSCF)
  Rika Kobayashi,           Australian National Univ.,    Australia   (DIIS in CC, London in MCSCF)
  Henrik Koch,              NTNU,                         Norway      (CC module, Cholesky decomposition)
  Jacob Kongsted,           Univ. of Southern Denmark,    Denmark     (Polarizable embedding model, QM/MM)
  Andrea Ligabue,           University of Modena,         Italy       (CTOCD, AOSOPPA)
  Nanna H. List             Univ. of Southern Denmark,    Denmark     (Polarizable embedding model)
  Ola B. Lutnaes,           University of Oslo,           Norway      (DFT Hessian)
  Juan I. Melo,             University of Buenos Aires,   Argentina   (LRESC, Relativistic Effects on NMR Shieldings)
  Kurt V. Mikkelsen,        University of Copenhagen,     Denmark     (MC-SCRF and QM/MM)
  Rolf H. Myhre,            NTNU,                         Norway      (Subsystems and CC3)
  Christian Neiss,          Univ. Erlangen-Nuernberg,     Germany     (CCSD(R12))
  Christian B. Nielsen,     University of Copenhagen,     Denmark     (QM/MM)
  Patrick Norman,           KTH Stockholm,                Sweden      (Cubic response and complex frequency response in RESPONS)
  Jeppe Olsen,              Aarhus University,            Denmark     (SIRIUS CI/density modules)
  Jogvan Magnus H. Olsen,   Univ. of Southern Denmark,    Denmark     (Polarizable embedding model, QM/MM)
  Anders Osted,             Copenhagen University,        Denmark     (QM/MM)
  Martin J. Packer,         University of Sheffield,      UK          (SOPPA)
  Filip Pawlowski,          Kazimierz Wielki University,  Poland      (CC3)
  Morten N. Pedersen,       Univ. of Southern Denmark,    Denmark     (Polarizable embedding model)
  Thomas B. Pedersen,       University of Oslo,           Norway      (Cholesky decomposition)
  Patricio F. Provasi,      University of Northeastern,   Argentina   (Analysis of coupling constants in localized orbitals)
  Zilvinas Rinkevicius,     KTH Stockholm,                Sweden      (open-shell DFT, ESR)
  Elias Rudberg,            KTH Stockholm,                Sweden      (DFT grid and basis info)
  Torgeir A. Ruden,         University of Oslo,           Norway      (Numerical derivatives in ABACUS)
  Kenneth Ruud,             UiT The Arctic U. of Norway,  Norway      (DALTON; ABACUS magnetic properties and much more)
  Pawel Salek,              KTH Stockholm,                Sweden      (DALTON; DFT code)
  Claire C. M. Samson       University of Karlsruhe       Germany     (Boys localization, r12 integrals in ERI)
  Alfredo Sanchez de Meras, University of Valencia,       Spain       (CC module, Cholesky decomposition)
  Trond Saue,               Paul Sabatier University,     France      (direct Fock matrix construction)
  Stephan P. A. Sauer,      University of Copenhagen,     Denmark     (SOPPA(CCSD), SOPPA prop., AOSOPPA, vibrational g-factors)
  Andre S. P. Gomes,        CNRS/Universite de Lille,     France      (Frozen density embedding model)
  Bernd Schimmelpfennig,    Forschungszentrum Karlsruhe,  Germany     (AMFI module)
  Kristian Sneskov,         Aarhus University,            Denmark     (Polarizable embedding model, QM/MM)
  Arnfinn H. Steindal,      UiT The Arctic U. of Norway,  Norway      (parallel QM/MM, Polarizable embedding model)
  Casper Steinmann,         Univ. of Southern Denmark,    Denmark     (QFIT, Polarizable embedding model)
  K. O. Sylvester-Hvid,     University of Copenhagen,     Denmark     (MC-SCRF)
  Peter R. Taylor,          VLSCI/Univ. of Melbourne,     Australia   (Symmetry handling ABACUS, integral transformation)
  Andrew M. Teale,          University of Nottingham,     England     (DFT-AC, DFT-D)
  David P. Tew,             University of Bristol,        England     (CCSD(R12))
  Olav Vahtras,             KTH Stockholm,                Sweden      (triplet response, spin-orbit, ESR, TDDFT, open-shell DFT)
  Lucas Visscher,           Vrije Universiteit Amsterdam, Netherlands (Frozen density embedding model)
  David J. Wilson,          La Trobe University,          Australia   (DFT Hessian and DFT magnetizabilities)
  Hans Agren,               KTH Stockholm,                Sweden      (SIRIUS module, RESPONS, MC-SCRF solvation model)
 --------------------------------------------------------------------------------

     Date and time (Linux)  : Tue Feb 25 00:47:50 2020
     Host name              : Lab2-333-NPs                            

 * Work memory size             :  1024000000 =  7.629 gigabytes.

 * Directories for basis set searches:
   1) /home/lab333/dalton/build_2018_atlas
   2) /home/lab333/dalton/build_2018_atlas/basis


Compilation information
-----------------------

 Who compiled             | lab333
 Host                     | Lab2-333-NPs
 System                   | Linux-4.4.0-43-Microsoft
 CMake generator          | Unix Makefiles
 Processor                | x86_64
 64-bit integers          | OFF
 MPI                      | OFF
 Fortran compiler         | /usr/bin/gfortran
 Fortran compiler version | GNU Fortran (Ubuntu 7.3.0-27ubuntu1~18.04) 7.3.0
 C compiler               | /usr/bin/gcc
 C compiler version       | gcc (Ubuntu 7.3.0-27ubuntu1~18.04) 7.3.0
 C++ compiler             | /usr/bin/g++
 C++ compiler version     | g++ (Ubuntu 7.3.0-27ubuntu1~18.04) 7.3.0
 BLAS                     | /usr/lib/x86_64-linux-gnu/libf77blas.so;/usr/lib/x
                          | 86_64-linux-gnu/libcblas.so;/usr/lib/x86_64-linux-
                          | gnu/libatlas.so
 LAPACK                   | /usr/lib/x86_64-linux-gnu/libatlas.so;/usr/lib/x86
                          | _64-linux-gnu/atlas/liblapack.so
 Static linking           | OFF
 Last Git revision        | da625bf48c74028e805616daee31bc5d76b3a20d
 Git branch               | (HEAD detached at Dalton2018.1)
 Configuration time       | 2019-01-18 10:20:51.437510


   Content of the .dal input file
 ----------------------------------

**DALTON INPUT
.RUN RESPONSE
.DIRECT
**WAVE FUNCTIONS
.HF
.MP2
.MCSCF
*CONFIGURATION INPUT
.SPIN MULTIPLICITY
3
.SYMMETRY
1
.INACTIVE ORBITALS
15 10 2 0
.CAS SPACE
1 1 2 3
.ELECTRONS
10
*ORBITAL INPUT
.MOSTART
.HUCKEL
*OPTIMIZATION
.DETERMINANTS
.STATE
1
*CI VECTOR
.PLUS COMBINATIONS
**RESPONSE
*CUBIC
.DIPLEN
.BFREQ
1
0.0584
.CFREQ
1
-0.0584
.DFREQ
1
0.0584
**END OF DALTON INPUT


   Content of the .mol file
 ----------------------------

BASIS
aug-cc-pCVDZ
 nitrobenzene
 Generated by the Dalton Input File Plugin for Avogadro
Atomtypes=4 Angstrom Generators=2 X Y
Charge=6.0 Atoms=4
C        0.0000000000            0.0000000000           -0.0265759623
C       -1.2190534920            0.0000000000           -0.6979856948
C       -1.2105095870            0.0000000000           -2.0897394457
C        0.0000000000            0.0000000000           -2.7841484631
Charge=7.0 Atoms=1
N        0.0000000000            0.0000000000            1.4215958362666665
Charge=8.0 Atoms=1
O       1.0847503743            0.0            1.9902446464666668
Charge=1.0 Atoms=3
H       -2.1410602955            0.0000000000           -0.1327964319
H       -2.1492827751            0.0000000000           -2.6311811056
H        0.0000000000            0.0000000000           -3.8683953478


       *******************************************************************
       *********** Output from DALTON general input processing ***********
       *******************************************************************

 --------------------------------------------------------------------------------
   Overall default print level:    0
   Print level for DALTON.STAT:    1

    AO-direct calculation (in sections where implemented)
    HERMIT 1- and 2-electron integral sections will be executed
    "Old" integral transformation used (limited to max 255 basis functions)
    Wave function sections will be executed (SIRIUS module)
    Dynamic molecular response properties section will be executed (RESPONSE module)
 --------------------------------------------------------------------------------


   ****************************************************************************
   *************** Output of molecule and basis set information ***************
   ****************************************************************************


    The two title cards from your ".mol" input:
    ------------------------------------------------------------------------
 1:  nitrobenzene                                                           
 2:  Generated by the Dalton Input File Plugin for Avogadro                 
    ------------------------------------------------------------------------

  Coordinates are entered in Angstrom and converted to atomic units.
          - Conversion factor : 1 bohr = 0.52917721 A

  Atomic type no.    1
  --------------------
  Nuclear charge:   6.00000
  Number of symmetry independent centers:    4
  Number of basis sets to read;    2
  Basis set file used for this atomic type with Z =   6 :
     "/home/lab333/dalton/build_2018_atlas/basis/aug-cc-pCVDZ"

  Atomic type no.    2
  --------------------
  Nuclear charge:   7.00000
  Number of symmetry independent centers:    1
  Number of basis sets to read;    2
  Basis set file used for this atomic type with Z =   7 :
     "/home/lab333/dalton/build_2018_atlas/basis/aug-cc-pCVDZ"

  Atomic type no.    3
  --------------------
  Nuclear charge:   8.00000
  Number of symmetry independent centers:    1
  Number of basis sets to read;    2
  Basis set file used for this atomic type with Z =   8 :
     "/home/lab333/dalton/build_2018_atlas/basis/aug-cc-pCVDZ"

  Atomic type no.    4
  --------------------
  Nuclear charge:   1.00000
  Number of symmetry independent centers:    3
  Number of basis sets to read;    2
  Basis set file used for this atomic type with Z =   1 :
     "/home/lab333/dalton/build_2018_atlas/basis/aug-cc-pCVDZ"


                         SYMGRP: Point group information
                         -------------------------------

@    Point group: C2v

@  * The irrep name for each symmetry:    1: A1     2: B1     3: B2     4: A2 

   * The point group was generated by:

      Reflection in the yz-plane
      Reflection in the xz-plane

   * Group multiplication table

        |  E   C2z  Oxz  Oyz
   -----+--------------------
     E  |  E   C2z  Oxz  Oyz
    C2z | C2z   E   Oyz  Oxz
    Oxz | Oxz  Oyz   E   C2z
    Oyz | Oyz  Oxz  C2z   E 

   * Character table

        |  E   C2z  Oxz  Oyz
   -----+--------------------
    A1  |   1    1    1    1
    B1  |   1   -1    1   -1
    B2  |   1   -1   -1    1
    A2  |   1    1   -1   -1

   * Direct product table

        | A1   B1   B2   A2 
   -----+--------------------
    A1  | A1   B1   B2   A2 
    B1  | B1   A1   A2   B2 
    B2  | B2   A2   A1   B1 
    A2  | A2   B2   B1   A1 


                                 Isotopic Masses
                                 ---------------

                           C          12.000000
                           C   _1     12.000000
                           C   _2     12.000000
                           C   _1     12.000000
                           C   _2     12.000000
                           C          12.000000
                           N          14.003074
                           O   _1     15.994915
                           O   _2     15.994915
                           H   _1      1.007825
                           H   _2      1.007825
                           H   _1      1.007825
                           H   _2      1.007825
                           H           1.007825

                       Total mass:   123.032029 amu
                       Natural abundance:  92.716 %

 Center-of-mass coordinates (a.u.):    0.000000    0.000000   -0.407486


  Atoms and basis sets
  --------------------

  Number of atom types :    4
  Total number of atoms:   14

  Basis set used is "aug-cc-pCVDZ" from the basis set library.

  label    atoms   charge   prim   cont     basis
  ----------------------------------------------------------------------
  C           6    6.0000    39    27      [11s6p2d|5s4p2d]                                   
  N           1    7.0000    39    27      [11s6p2d|5s4p2d]                                   
  O           2    8.0000    39    27      [11s6p2d|5s4p2d]                                   
  H           5    1.0000    11     9      [5s2p|3s2p]                                        
  ----------------------------------------------------------------------
  total:     14   64.0000   406   288
  ----------------------------------------------------------------------
  Spherical harmonic basis used.

  Threshold for neglecting AO integrals:  1.00D-12


  Symmetry Coordinates
  --------------------

  Number of coordinates in each symmetry:    14   14    9    5


   Interatomic separations (in Angstrom):
   --------------------------------------

            C           C   _1      C   _2      C   _1      C   _2      C     
            ------      ------      ------      ------      ------      ------
 C     :    0.000000
 C   _1:    1.391719    0.000000
 C   _2:    1.391719    2.438107    0.000000
 C   _1:    2.392065    1.391780    2.799956    0.000000
 C   _2:    2.392065    2.799956    1.391780    2.421019    0.000000
 C     :    2.757573    2.416230    2.416230    1.395542    1.395542    0.000000
 N     :    1.448172    2.445142    2.445142    3.714136    3.714136    4.205744
 O   _1:    2.290032    3.540352    2.691583    4.681291    4.081922    4.896071
 O   _2:    2.290032    2.691583    3.540352    4.081922    4.681291    4.896071
 H   _1:    2.143694    1.081451    3.407316    2.166922    3.881063    3.407904
 H   _2:    2.143694    3.407316    1.081451    3.881063    2.166922    3.407904
 H   _1:    3.376890    2.145360    3.883675    1.083722    3.403140    2.154719
 H   _2:    3.376890    3.883675    2.145360    3.403140    1.083722    2.154719
 H     :    3.841819    3.396703    3.396703    2.151500    2.151500    1.084247

            N           O   _1      O   _2      H   _1      H   _2      H   _1
            ------      ------      ------      ------      ------      ------
 N     :    0.000000
 O   _1:    1.224763    0.000000
 O   _2:    1.224763    2.169501    0.000000
 H   _1:    2.645803    3.861756    2.371306    0.000000
 H   _2:    2.645803    2.371306    3.861756    4.282121    0.000000
 H   _1:    4.587419    5.640616    4.742447    2.498398    4.964773    0.000000
 H   _2:    4.587419    4.742447    5.640616    4.964773    2.498398    4.298566
 H     :    5.289991    5.958217    5.958217    4.305675    4.305675    2.479943

            H   _2      H     
            ------      ------
 H   _2:    0.000000
 H     :    2.479943    0.000000


  Max    interatomic separation is    5.9582 Angstrom (   11.2594 Bohr)
  between atoms   14 and    8, "H     " and "O   _1".

  Min HX interatomic separation is    1.0815 Angstrom (    2.0436 Bohr)

  Min YX interatomic separation is    1.2248 Angstrom (    2.3145 Bohr)


  Bond distances (Angstrom):
  --------------------------

                  atom 1     atom 2       distance
                  ------     ------       --------
  bond distance:  C   _1     C            1.391719
  bond distance:  C   _2     C            1.391719
  bond distance:  C   _1     C   _1       1.391780
  bond distance:  C   _2     C   _2       1.391780
  bond distance:  C          C   _1       1.395542
  bond distance:  C          C   _2       1.395542
  bond distance:  N          C            1.448172
  bond distance:  O   _1     N            1.224763
  bond distance:  O   _2     N            1.224763
  bond distance:  H   _1     C   _1       1.081451
  bond distance:  H   _2     C   _2       1.081451
  bond distance:  H   _1     C   _1       1.083722
  bond distance:  H   _2     C   _2       1.083722
  bond distance:  H          C            1.084247


  Bond angles (degrees):
  ----------------------

                  atom 1     atom 2     atom 3         angle
                  ------     ------     ------         -----
  bond angle:     C   _1     C          C   _2       122.311
  bond angle:     C   _1     C          N            118.844
  bond angle:     C   _2     C          N            118.844
  bond angle:     C          C   _1     C   _1       118.493
  bond angle:     C          C   _1     H   _1       119.647
  bond angle:     C   _1     C   _1     H   _1       121.860
  bond angle:     C          C   _2     C   _2       118.493
  bond angle:     C          C   _2     H   _2       119.647
  bond angle:     C   _2     C   _2     H   _2       121.860
  bond angle:     C   _1     C   _1     C            120.192
  bond angle:     C   _1     C   _1     H   _1       119.623
  bond angle:     C          C   _1     H   _1       120.185
  bond angle:     C   _2     C   _2     C            120.192
  bond angle:     C   _2     C   _2     H   _2       119.623
  bond angle:     C          C   _2     H   _2       120.185
  bond angle:     C   _1     C          C   _2       120.319
  bond angle:     C   _1     C          H            119.841
  bond angle:     C   _2     C          H            119.841
  bond angle:     C          N          O   _1       117.664
  bond angle:     C          N          O   _2       117.664
  bond angle:     O   _1     N          O   _2       124.671




 Principal moments of inertia (u*A**2) and principal axes
 --------------------------------------------------------

   IA     127.027245          0.000000    0.000000    1.000000
   IB     387.891368          1.000000    0.000000    0.000000
   IC     514.918613          0.000000    1.000000    0.000000


 Rotational constants
 --------------------

@    The molecule is planar.

               A                   B                   C

           3978.5088           1302.8880            981.4736 MHz
            0.132709            0.043460            0.032738 cm-1


@  Nuclear repulsion energy :  413.803377248499 Hartree


  Symmetry Orbitals
  -----------------

  Number of orbitals in each symmetry:         115   91   48   34


  Symmetry  A1 ( 1)

    1     C        1s         1
    2     C        1s         2
    3     C        1s         3
    4     C        1s         4
    5     C        1s         5
    6     C        2pz        8
    7     C        2pz       11
    8     C        2pz       14
    9     C        2pz       17
   10     C        3d0       20
   11     C        3d2+      22
   12     C        3d0       25
   13     C        3d2+      27
   14     C        1s        28 +   29
   15     C        1s        30 +   31
   16     C        1s        32 +   33
   17     C        1s        34 +   35
   18     C        1s        36 +   37
   19     C        2px       38 -   39
   20     C        2pz       42 +   43
   21     C        2px       44 -   45
   22     C        2pz       48 +   49
   23     C        2px       50 -   51
   24     C        2pz       54 +   55
   25     C        2px       56 -   57
   26     C        2pz       60 +   61
   27     C        3d0       66 +   67
   28     C        3d1+      68 -   69
   29     C        3d2+      70 +   71
   30     C        3d0       76 +   77
   31     C        3d1+      78 -   79
   32     C        3d2+      80 +   81
   33     C        1s        82 +   83
   34     C        1s        84 +   85
   35     C        1s        86 +   87
   36     C        1s        88 +   89
   37     C        1s        90 +   91
   38     C        2px       92 -   93
   39     C        2pz       96 +   97
   40     C        2px       98 -   99
   41     C        2pz      102 +  103
   42     C        2px      104 -  105
   43     C        2pz      108 +  109
   44     C        2px      110 -  111
   45     C        2pz      114 +  115
   46     C        3d0      120 +  121
   47     C        3d1+     122 -  123
   48     C        3d2+     124 +  125
   49     C        3d0      130 +  131
   50     C        3d1+     132 -  133
   51     C        3d2+     134 +  135
   52     C        1s       136
   53     C        1s       137
   54     C        1s       138
   55     C        1s       139
   56     C        1s       140
   57     C        2pz      143
   58     C        2pz      146
   59     C        2pz      149
   60     C        2pz      152
   61     C        3d0      155
   62     C        3d2+     157
   63     C        3d0      160
   64     C        3d2+     162
   65     N        1s       163
   66     N        1s       164
   67     N        1s       165
   68     N        1s       166
   69     N        1s       167
   70     N        2pz      170
   71     N        2pz      173
   72     N        2pz      176
   73     N        2pz      179
   74     N        3d0      182
   75     N        3d2+     184
   76     N        3d0      187
   77     N        3d2+     189
   78     O        1s       190 +  191
   79     O        1s       192 +  193
   80     O        1s       194 +  195
   81     O        1s       196 +  197
   82     O        1s       198 +  199
   83     O        2px      200 -  201
   84     O        2pz      204 +  205
   85     O        2px      206 -  207
   86     O        2pz      210 +  211
   87     O        2px      212 -  213
   88     O        2pz      216 +  217
   89     O        2px      218 -  219
   90     O        2pz      222 +  223
   91     O        3d0      228 +  229
   92     O        3d1+     230 -  231
   93     O        3d2+     232 +  233
   94     O        3d0      238 +  239
   95     O        3d1+     240 -  241
   96     O        3d2+     242 +  243
   97     H        1s       244 +  245
   98     H        1s       246 +  247
   99     H        1s       248 +  249
  100     H        2px      250 -  251
  101     H        2pz      254 +  255
  102     H        2px      256 -  257
  103     H        2pz      260 +  261
  104     H        1s       262 +  263
  105     H        1s       264 +  265
  106     H        1s       266 +  267
  107     H        2px      268 -  269
  108     H        2pz      272 +  273
  109     H        2px      274 -  275
  110     H        2pz      278 +  279
  111     H        1s       280
  112     H        1s       281
  113     H        1s       282
  114     H        2pz      285
  115     H        2pz      288


  Symmetry  B1 ( 2)

  116     C        2px        6
  117     C        2px        9
  118     C        2px       12
  119     C        2px       15
  120     C        3d1+      21
  121     C        3d1+      26
  122     C        1s        28 -   29
  123     C        1s        30 -   31
  124     C        1s        32 -   33
  125     C        1s        34 -   35
  126     C        1s        36 -   37
  127     C        2px       38 +   39
  128     C        2pz       42 -   43
  129     C        2px       44 +   45
  130     C        2pz       48 -   49
  131     C        2px       50 +   51
  132     C        2pz       54 -   55
  133     C        2px       56 +   57
  134     C        2pz       60 -   61
  135     C        3d0       66 -   67
  136     C        3d1+      68 +   69
  137     C        3d2+      70 -   71
  138     C        3d0       76 -   77
  139     C        3d1+      78 +   79
  140     C        3d2+      80 -   81
  141     C        1s        82 -   83
  142     C        1s        84 -   85
  143     C        1s        86 -   87
  144     C        1s        88 -   89
  145     C        1s        90 -   91
  146     C        2px       92 +   93
  147     C        2pz       96 -   97
  148     C        2px       98 +   99
  149     C        2pz      102 -  103
  150     C        2px      104 +  105
  151     C        2pz      108 -  109
  152     C        2px      110 +  111
  153     C        2pz      114 -  115
  154     C        3d0      120 -  121
  155     C        3d1+     122 +  123
  156     C        3d2+     124 -  125
  157     C        3d0      130 -  131
  158     C        3d1+     132 +  133
  159     C        3d2+     134 -  135
  160     C        2px      141
  161     C        2px      144
  162     C        2px      147
  163     C        2px      150
  164     C        3d1+     156
  165     C        3d1+     161
  166     N        2px      168
  167     N        2px      171
  168     N        2px      174
  169     N        2px      177
  170     N        3d1+     183
  171     N        3d1+     188
  172     O        1s       190 -  191
  173     O        1s       192 -  193
  174     O        1s       194 -  195
  175     O        1s       196 -  197
  176     O        1s       198 -  199
  177     O        2px      200 +  201
  178     O        2pz      204 -  205
  179     O        2px      206 +  207
  180     O        2pz      210 -  211
  181     O        2px      212 +  213
  182     O        2pz      216 -  217
  183     O        2px      218 +  219
  184     O        2pz      222 -  223
  185     O        3d0      228 -  229
  186     O        3d1+     230 +  231
  187     O        3d2+     232 -  233
  188     O        3d0      238 -  239
  189     O        3d1+     240 +  241
  190     O        3d2+     242 -  243
  191     H        1s       244 -  245
  192     H        1s       246 -  247
  193     H        1s       248 -  249
  194     H        2px      250 +  251
  195     H        2pz      254 -  255
  196     H        2px      256 +  257
  197     H        2pz      260 -  261
  198     H        1s       262 -  263
  199     H        1s       264 -  265
  200     H        1s       266 -  267
  201     H        2px      268 +  269
  202     H        2pz      272 -  273
  203     H        2px      274 +  275
  204     H        2pz      278 -  279
  205     H        2px      283
  206     H        2px      286


  Symmetry  B2 ( 3)

  207     C        2py        7
  208     C        2py       10
  209     C        2py       13
  210     C        2py       16
  211     C        3d1-      19
  212     C        3d1-      24
  213     C        2py       40 +   41
  214     C        2py       46 +   47
  215     C        2py       52 +   53
  216     C        2py       58 +   59
  217     C        3d2-      62 -   63
  218     C        3d1-      64 +   65
  219     C        3d2-      72 -   73
  220     C        3d1-      74 +   75
  221     C        2py       94 +   95
  222     C        2py      100 +  101
  223     C        2py      106 +  107
  224     C        2py      112 +  113
  225     C        3d2-     116 -  117
  226     C        3d1-     118 +  119
  227     C        3d2-     126 -  127
  228     C        3d1-     128 +  129
  229     C        2py      142
  230     C        2py      145
  231     C        2py      148
  232     C        2py      151
  233     C        3d1-     154
  234     C        3d1-     159
  235     N        2py      169
  236     N        2py      172
  237     N        2py      175
  238     N        2py      178
  239     N        3d1-     181
  240     N        3d1-     186
  241     O        2py      202 +  203
  242     O        2py      208 +  209
  243     O        2py      214 +  215
  244     O        2py      220 +  221
  245     O        3d2-     224 -  225
  246     O        3d1-     226 +  227
  247     O        3d2-     234 -  235
  248     O        3d1-     236 +  237
  249     H        2py      252 +  253
  250     H        2py      258 +  259
  251     H        2py      270 +  271
  252     H        2py      276 +  277
  253     H        2py      284
  254     H        2py      287


  Symmetry  A2 ( 4)

  255     C        3d2-      18
  256     C        3d2-      23
  257     C        2py       40 -   41
  258     C        2py       46 -   47
  259     C        2py       52 -   53
  260     C        2py       58 -   59
  261     C        3d2-      62 +   63
  262     C        3d1-      64 -   65
  263     C        3d2-      72 +   73
  264     C        3d1-      74 -   75
  265     C        2py       94 -   95
  266     C        2py      100 -  101
  267     C        2py      106 -  107
  268     C        2py      112 -  113
  269     C        3d2-     116 +  117
  270     C        3d1-     118 -  119
  271     C        3d2-     126 +  127
  272     C        3d1-     128 -  129
  273     C        3d2-     153
  274     C        3d2-     158
  275     N        3d2-     180
  276     N        3d2-     185
  277     O        2py      202 -  203
  278     O        2py      208 -  209
  279     O        2py      214 -  215
  280     O        2py      220 -  221
  281     O        3d2-     224 +  225
  282     O        3d1-     226 -  227
  283     O        3d2-     234 +  235
  284     O        3d1-     236 -  237
  285     H        2py      252 -  253
  286     H        2py      258 -  259
  287     H        2py      270 -  271
  288     H        2py      276 -  277

  Symmetries of electric field:  B1 (2)  B2 (3)  A1 (1)

  Symmetries of magnetic field:  B2 (3)  B1 (2)  A2 (4)


                     .---------------------------------------.
                     | Starting in Integral Section (HERMIT) |
                     `---------------------------------------'



 ***************************************************************************************
 ****************** Output from **INTEGRALS input processing (HERMIT) ******************
 ***************************************************************************************


 - Using defaults, no **INTEGRALS input found

 Default print level:        1

 Calculation of one-electron Hamiltonian integrals.

 Center of mass  (bohr):      0.000000000000      0.000000000000     -0.407485904113
 Operator center (bohr):      0.000000000000      0.000000000000      0.000000000000
 Gauge origin    (bohr):      0.000000000000      0.000000000000      0.000000000000
 Dipole origin   (bohr):      0.000000000000      0.000000000000      0.000000000000


     ************************************************************************
     ************************** Output from HERINT **************************
     ************************************************************************



                      Nuclear contribution to dipole moments
                      --------------------------------------

                 au               Debye          C m (/(10**-30)

      z    -33.86070507       -86.06532208      -287.08301289


  Time used in GABGEN     is       0.11 seconds
  Total CPU  time used in HERMIT:   0.41 seconds
  Total wall time used in HERMIT:   0.41 seconds


                        .----------------------------------.
                        | End of Integral Section (HERMIT) |
                        `----------------------------------'



                   .--------------------------------------------.
                   | Starting in Wave Function Section (SIRIUS) |
                   `--------------------------------------------'


 *** Output from Huckel module :

     Using EWMO model:          F
     Using EHT  model:          T
     Number of Huckel orbitals each symmetry:   24   17    6    3

 Huckel EHT eigenvalues for symmetry :  1
          -20.695947     -15.707500     -11.415361     -11.395076     -11.377075
          -11.362728      -1.757346      -1.554846      -1.196096      -0.941931
           -0.816042      -0.782426      -0.641413      -0.588760      -0.492988
           -0.428362      -0.327409      -0.244038      -0.223927      -0.213581
           -0.205628      -0.178287      -0.166210      -0.160259

 Huckel EHT eigenvalues for symmetry :  2
          -20.700675     -11.396488     -11.377866      -1.403534      -1.201909
           -0.879655      -0.646195      -0.570338      -0.525962      -0.478338
           -0.414769      -0.271262      -0.213041      -0.202773      -0.176202
           -0.165328      -0.163127

 Huckel EHT eigenvalues for symmetry :  3
           -0.803118      -0.670449      -0.466269      -0.383393      -0.281098
           -0.236327

 Huckel EHT eigenvalues for symmetry :  4
           -0.592946      -0.460082      -0.288817

 **********************************************************************
 *SIRIUS* a direct, restricted step, second order MCSCF program       *
 **********************************************************************

 
     Date and time (Linux)  : Tue Feb 25 00:47:50 2020
     Host name              : Lab2-333-NPs                            

 Title lines from ".mol" input file:
      nitrobenzene                                                           
      Generated by the Dalton Input File Plugin for Avogadro                 

 Print level on unit LUPRI =   2 is   0
 Print level on unit LUW4  =   2 is   5

@    MC-SCF optimization.

@    Multi-configurational response calculation.
@              Type: complete active space calculation (CAS).

@    This is a combination run starting with
@              a restricted, closed shell Hartree-Fock calculation
@              an MP2 calculation

 Fock matrices are calculated directly without use of integrals on disk.

 Initial molecular orbitals are obtained according to
 ".MOSTART EHT   " input option

     Wave function specification
     ============================
@    Wave function type        --- MC-SCF ---
@    Number of closed shell electrons          54
@    Number of electrons in active shells      10
@    Total charge of the molecule               0

@    Spin multiplicity and 2 M_S                3         2
@    Total number of symmetries                 4 (point group: C2v)
@    Reference state symmetry                   1 (irrep name : A1 )

     Orbital specifications
     ======================
@    Abelian symmetry species          All |    1    2    3    4
@                                          |  A1   B1   B2   A2 
                                       --- |  ---  ---  ---  ---
@    Inactive orbitals                  27 |   15   10    2    0
@    Active orbitals                     7 |    1    1    2    3
@    Secondary orbitals                254 |   99   80   44   31
@    Total number of orbitals          288 |  115   91   48   34
@    Number of basis functions         288 |  115   91   48   34

      ** Automatic occupation of RHF orbitals **

      -- Initial occupation of symmetries is determined from extended Huckel guess.           
      -- Initial occupation of symmetries is :
@    Occupied SCF orbitals              32 |   16   11    3    2

     Optimization information
     ========================
@    Number of determinants                  56
@    Number of orbital rotations           2762
     ------------------------------------------
@    Total number of variables             2818

     Maximum number of macro iterations      25
     Maximum number of micro iterations     600
     Threshold for MCSCF gradient      1.00D-05
     Number of initial trial vectors          1
     Number of initial CI iterations          3
     Number of simultaneous trial vectors     1

@    This calculation converges to the lowest state for the specified symmetry and spin species.

     Maximum number of NEO/NR iterations  24

    INFORMATION: Switched to "new" integral transformation (from 1988 ;-) )
    because more than 255 basis functions.


 ***********************************************
 ***** DIIS acceleration of SCF iterations *****
 ***********************************************

 C1-DIIS algorithm; max error vectors =    8

 Automatic occupation of symmetries with  64 electrons.

 Iter     Total energy    Error norm  Delta(E)    SCF occupation
 -----------------------------------------------------------------------------
   1  Screening settings (-IFTHRS, JTDIIS, DIFDEN, times)   -8    1    T  2.78D+01  2.78D+01
@  1  -432.233689765       6.51D+00  -4.32D+02    16  11   3   2
      Virial theorem: -V/T =      1.998322
@    MULPOP   C       0.37; C   _1  0.25; C   _2  0.25; C   _1  0.23; C   _2  0.23; C       0.37; N       1.31; O   _1 -1.03; O   _2 -1.03; H   _1 -0.20; 
@             H   _2 -0.20; H   _1 -0.18; H   _2 -0.18; H      -0.19; 
   1  Level shift: doubly occupied orbital energies shifted by -2.00D-01
 -----------------------------------------------------------------------------
   2  Screening settings (-IFTHRS, JTDIIS, DIFDEN, times)   -8    2    T  2.79D+01  2.79D+01
@  2  -433.829027511       2.98D+00  -1.60D+00    16  11   3   2
      Virial theorem: -V/T =      2.001294
@    MULPOP   C       0.90; C   _1  0.35; C   _2  0.35; C   _1  0.33; C   _2  0.33; C       0.41; N       0.38; O   _1 -0.52; O   _2 -0.52; H   _1 -0.40; 
@             H   _2 -0.40; H   _1 -0.40; H   _2 -0.40; H      -0.40; 
   2  Level shift: doubly occupied orbital energies shifted by -1.00D-01
 -----------------------------------------------------------------------------
   3  Screening settings (-IFTHRS, JTDIIS, DIFDEN, times)   -8    3    T  2.78D+01  2.78D+01
@  3  -434.207849181       7.13D-01  -3.79D-01    16  11   3   2
      Virial theorem: -V/T =      2.000684
@    MULPOP   C       1.71; C   _1  0.22; C   _2  0.22; C   _1  0.45; C   _2  0.45; C       0.27; N       0.70; O   _1 -0.90; O   _2 -0.90; H   _1 -0.45; 
@             H   _2 -0.45; H   _1 -0.44; H   _2 -0.44; H      -0.44; 
   3  Level shift: doubly occupied orbital energies shifted by -2.50D-02
 -----------------------------------------------------------------------------
   4  Screening settings (-IFTHRS, JTDIIS, DIFDEN, times)   -8    4    T  2.76D+01  2.76D+01
@  4  -434.233219985       1.86D-01  -2.54D-02    16  11   3   2
      Virial theorem: -V/T =      2.002473
@    MULPOP   C       1.83; C   _1  0.17; C   _2  0.17; C   _1  0.51; C   _2  0.51; C       0.28; N       0.55; O   _1 -0.87; O   _2 -0.87; H   _1 -0.45; 
@             H   _2 -0.45; H   _1 -0.45; H   _2 -0.45; H      -0.46; 
   4  Level shift: doubly occupied orbital energies shifted by -1.25D-02
 -----------------------------------------------------------------------------
   5  Screening settings (-IFTHRS, JTDIIS, DIFDEN, times)  -10    5    F  2.81D+01  2.81D+01
@  5  -434.235888415       5.57D-02  -2.67D-03    16  11   3   2
      Virial theorem: -V/T =      2.001902
@    MULPOP   C       1.86; C   _1  0.15; C   _2  0.15; C   _1  0.50; C   _2  0.50; C       0.26; N       0.55; O   _1 -0.87; O   _2 -0.87; H   _1 -0.44; 
@             H   _2 -0.44; H   _1 -0.44; H   _2 -0.44; H      -0.44; 
 -----------------------------------------------------------------------------
   6  Screening settings (-IFTHRS, JTDIIS, DIFDEN, times)  -10    6    T  2.79D+01  2.79D+01
@  6  -434.236225801       1.56D-02  -3.37D-04    16  11   3   2
      Virial theorem: -V/T =      2.001819
@    MULPOP   C       1.87; C   _1  0.14; C   _2  0.14; C   _1  0.50; C   _2  0.50; C       0.26; N       0.53; O   _1 -0.87; O   _2 -0.87; H   _1 -0.44; 
@             H   _2 -0.44; H   _1 -0.44; H   _2 -0.44; H      -0.44; 
 -----------------------------------------------------------------------------
   7  Screening settings (-IFTHRS, JTDIIS, DIFDEN, times)  -13    7    F  2.82D+01  2.82D+01
@  7  -434.236259302       6.33D-03  -3.35D-05    16  11   3   2
      Virial theorem: -V/T =      2.001856
@    MULPOP   C       1.88; C   _1  0.14; C   _2  0.14; C   _1  0.50; C   _2  0.50; C       0.26; N       0.52; O   _1 -0.87; O   _2 -0.87; H   _1 -0.44; 
@             H   _2 -0.44; H   _1 -0.44; H   _2 -0.44; H      -0.44; 
 -----------------------------------------------------------------------------
   8  Screening settings (-IFTHRS, JTDIIS, DIFDEN, times)  -13    8    T  2.80D+01  2.80D+01
@  8  -434.236264558       2.12D-03  -5.26D-06    16  11   3   2
      Virial theorem: -V/T =      2.001844
@    MULPOP   C       1.88; C   _1  0.14; C   _2  0.14; C   _1  0.50; C   _2  0.50; C       0.26; N       0.52; O   _1 -0.87; O   _2 -0.87; H   _1 -0.44; 
@             H   _2 -0.44; H   _1 -0.44; H   _2 -0.44; H      -0.44; 
 -----------------------------------------------------------------------------
   9  Screening settings (-IFTHRS, JTDIIS, DIFDEN, times)  -13    9    T  2.80D+01  2.81D+01
@  9  -434.236265125       6.60D-04  -5.67D-07    16  11   3   2
      Virial theorem: -V/T =      2.001841
@    MULPOP   C       1.88; C   _1  0.14; C   _2  0.14; C   _1  0.50; C   _2  0.50; C       0.26; N       0.52; O   _1 -0.87; O   _2 -0.87; H   _1 -0.44; 
@             H   _2 -0.44; H   _1 -0.44; H   _2 -0.44; H      -0.44; 
 -----------------------------------------------------------------------------
  10  Screening settings (-IFTHRS, JTDIIS, DIFDEN, times)  -13   10    T  2.80D+01  2.80D+01
@ 10  -434.236265178       2.13D-04  -5.31D-08    16  11   3   2
      Virial theorem: -V/T =      2.001843
@    MULPOP   C       1.88; C   _1  0.14; C   _2  0.14; C   _1  0.50; C   _2  0.50; C       0.26; N       0.52; O   _1 -0.87; O   _2 -0.87; H   _1 -0.44; 
@             H   _2 -0.44; H   _1 -0.44; H   _2 -0.44; H      -0.44; 
 -----------------------------------------------------------------------------
  11  Screening settings (-IFTHRS, JTDIIS, DIFDEN, times)  -13   11    T  2.80D+01  2.80D+01
@ 11  -434.236265186       8.11D-05  -7.97D-09    16  11   3   2
      Virial theorem: -V/T =      2.001842
@    MULPOP   C       1.88; C   _1  0.14; C   _2  0.14; C   _1  0.50; C   _2  0.50; C       0.26; N       0.52; O   _1 -0.87; O   _2 -0.87; H   _1 -0.44; 
@             H   _2 -0.44; H   _1 -0.44; H   _2 -0.44; H      -0.44; 
 -----------------------------------------------------------------------------
  12  Screening settings (-IFTHRS, JTDIIS, DIFDEN, times)  -13   12    T  2.79D+01  2.79D+01
@ 12  -434.236265187       3.32D-05  -1.40D-09    16  11   3   2
      Virial theorem: -V/T =      2.001842
@    MULPOP   C       1.88; C   _1  0.14; C   _2  0.14; C   _1  0.50; C   _2  0.50; C       0.26; N       0.52; O   _1 -0.87; O   _2 -0.87; H   _1 -0.44; 
@             H   _2 -0.44; H   _1 -0.44; H   _2 -0.44; H      -0.44; 
 -----------------------------------------------------------------------------
  13  Screening settings (-IFTHRS, JTDIIS, DIFDEN, times)  -13   13    T  2.79D+01  2.79D+01
@ 13  -434.236265188       1.93D-05  -2.28D-10    16  11   3   2
      Virial theorem: -V/T =      2.001842
@    MULPOP   C       1.88; C   _1  0.14; C   _2  0.14; C   _1  0.50; C   _2  0.50; C       0.26; N       0.52; O   _1 -0.87; O   _2 -0.87; H   _1 -0.44; 
@             H   _2 -0.44; H   _1 -0.44; H   _2 -0.44; H      -0.44; 
 -----------------------------------------------------------------------------
  14  Screening settings (-IFTHRS, JTDIIS, DIFDEN, times)  -13   14    T  2.79D+01  2.79D+01
@ 14  -434.236265188       6.53D-06  -1.13D-10    16  11   3   2
      Virial theorem: -V/T =      2.001842
@    MULPOP   C       1.88; C   _1  0.14; C   _2  0.14; C   _1  0.50; C   _2  0.50; C       0.26; N       0.52; O   _1 -0.87; O   _2 -0.87; H   _1 -0.44; 
@             H   _2 -0.44; H   _1 -0.44; H   _2 -0.44; H      -0.44; 
 -----------------------------------------------------------------------------
  15  Screening settings (-IFTHRS, JTDIIS, DIFDEN, times)  -13   15    T  2.77D+01  2.77D+01
@ 15  -434.236265188       2.47D-06   2.16D-12    16  11   3   2
      Virial theorem: -V/T =      2.001842
@    MULPOP   C       1.88; C   _1  0.14; C   _2  0.14; C   _1  0.50; C   _2  0.50; C       0.26; N       0.52; O   _1 -0.87; O   _2 -0.87; H   _1 -0.44; 
@             H   _2 -0.44; H   _1 -0.44; H   _2 -0.44; H      -0.44; 
 -----------------------------------------------------------------------------
  16  Screening settings (-IFTHRS, JTDIIS, DIFDEN, times)  -13   16    T  2.77D+01  2.77D+01
@ 16  -434.236265188       1.14D-06  -1.03D-11    16  11   3   2
      Virial theorem: -V/T =      2.001842
@    MULPOP   C       1.88; C   _1  0.14; C   _2  0.14; C   _1  0.50; C   _2  0.50; C       0.26; N       0.52; O   _1 -0.87; O   _2 -0.87; H   _1 -0.44; 
@             H   _2 -0.44; H   _1 -0.44; H   _2 -0.44; H      -0.44; 
 -----------------------------------------------------------------------------
  17  Screening settings (-IFTHRS, JTDIIS, DIFDEN, times)  -13   17    T  2.77D+01  2.77D+01
@ 17  -434.236265188       4.97D-07  -9.09D-13    16  11   3   2

@ *** DIIS converged in  17 iterations !
@     Converged SCF energy, gradient:   -434.236265187698    4.97D-07
    - total time used in SIRFCK :              0.00 seconds

 --- Writing SIRIFC interface file

 CPU and wall time for SCF :     474.781     474.912


 ----- Output from SIRIUS MP2 module -----

 Reference: H.J.Aa.Jensen, P.Jorgensen, H.Agren, and J.Olsen,
            J. Chem. Phys. 88, 3834 (1988); 89, 5354 (1988)

 Checking that the closed shell orbitals are canonical Hartree-Fock orbitals

    Number of electrons  :   64
    Closed shell orbitals:   16   11    3    2

 Generating Fock matrix

 Hartree-Fock electronic energy:        -848.039642436202
 Hartree-Fock total      energy:        -434.236265187704

 Hartree-Fock orbital energies, symmetry 1 ( A1 ),   16 occupied SCF orbitals

       -20.61274557   -15.86119148   -11.31670698   -11.28430660   -11.28239295
       -11.27394761    -1.61342649    -1.20449524    -1.10133802    -0.96692055
        -0.83244469    -0.78484837    -0.71033812    -0.65219092    -0.55613432
        -0.49942572     0.02656989     0.04406010     0.06215653     0.10458159
         0.13116563     0.13478452     0.15078695     0.15666086     0.17312596
         0.18059915     0.21518802     0.25908867     0.28802474     0.30342918
         0.31167850     0.34012504     0.35136050     0.35985122     0.37144290
         0.39671056     0.41244944     0.43774231     0.46391119     0.48589283
         0.51624124     0.56050761     0.58241541     0.58631589     0.63122413
         0.65247588     0.65949954     0.67813927     0.72848409     0.73467172
         0.74302287     0.83804595     0.88458240     0.93104604     0.95936943
         0.96471076     1.00785475     1.05721115     1.08404705     1.13899490
         1.27876208     1.36257134     1.37889856     1.44826076     1.49694017
         1.51362118     1.55388037     1.57134986     1.59438205     1.61199793
         1.68319435     1.72332565     1.74499436     1.76679532     1.87410554
         1.93932745     1.95776861     2.01048770     2.01818039     2.13229395
         2.16682453     2.23465097     2.31396471     2.37104325     2.43527051
         2.44849252     2.55786555     2.72189081     2.77819286     2.83720684
         2.88679795     2.96988559     3.03905494     3.15895567     3.27378591
         3.43619309     3.76330770     3.98189562     4.08992504     4.24587354
        19.80757581    20.34095563    20.45996262    20.62148680    23.35520627
        23.42684563    23.43504374    23.82548273    23.92584808    24.12950861
        27.09504176    31.27741717    35.81342017    39.72811563    39.84463058

 Hartree-Fock orbital energies, symmetry 2 ( B1 ),   11 occupied SCF orbitals

       -20.61279724   -11.28434703   -11.27404294    -1.40549412    -1.05595112
        -0.86847820    -0.73198123    -0.65791454    -0.62662103    -0.53240345
        -0.49443827     0.03601261     0.05990649     0.13025029     0.13318168
         0.15339260     0.17411333     0.18378168     0.21467160     0.26187209
         0.28930728     0.31373790     0.33349684     0.36297965     0.36950801
         0.39429690     0.42213153     0.43856569     0.47190854     0.56927977
         0.57843324     0.59229927     0.64938805     0.67075027     0.68039447
         0.70023924     0.75434120     0.76133927     0.82910201     0.84307634
         0.86750683     0.93323522     1.01500698     1.14162853     1.20824079
         1.25189506     1.31220015     1.41069326     1.42305649     1.48621906
         1.57266103     1.59223412     1.61288383     1.63769450     1.70900947
         1.76126970     1.77115853     1.79149660     1.89201982     1.92800166
         2.00140297     2.08999487     2.23453559     2.26404150     2.33994391
         2.34827795     2.38877540     2.53283057     2.58322413     2.75439088
         2.89854230     2.93451515     3.10817256     3.28467694     3.33551129
         3.41255545     3.75721155     3.86155351     4.22753240    20.30441929
        20.48384154    22.91465350    23.34385215    23.39391912    23.93874377
        24.12196525    24.31005004    31.44668155    35.55924319    39.64440822
        40.03994864

 Hartree-Fock orbital energies, symmetry 3 ( B2 ),    3 occupied SCF orbitals

        -0.72269205    -0.53688060    -0.37820053     0.03147665     0.10683967
         0.12670748     0.13907687     0.18354093     0.19411178     0.24623345
         0.31953669     0.34345928     0.37339519     0.44513582     0.53388190
         0.58789526     0.64285175     0.71482217     0.78642094     0.83935599
         0.87349263     0.92362387     0.92683481     0.98757400     1.14667203
         1.28609491     1.29983085     1.47198768     1.48050157     1.61884296
         1.67422304     1.70920676     1.84780372     1.90000486     1.97807371
         2.08231109     2.17875344     2.29593458     2.53625995     2.68827833
         3.67220875     3.78292072    22.54577279    22.69503527    22.83068861
        23.02713606    30.56762136    39.42417479

 Hartree-Fock orbital energies, symmetry 4 ( A2 ),    2 occupied SCF orbitals

        -0.45656796    -0.36969032     0.08590399     0.13134886     0.18581596
         0.29857171     0.41329695     0.49063888     0.54823696     0.66178409
         0.73607475     0.89501055     0.90201931     0.94502871     1.03579838
         1.09332996     1.21389770     1.24779409     1.33921277     1.48888842
         1.66919595     1.68859166     1.85848069     2.00254638     2.11536971
         2.21724737     2.35707097     2.47238293     2.60916893     3.66876244
         4.00413716    22.69232176    22.85925790    39.49939262

    E(LUMO) :     0.02656989   (in symmetry 1)
  - E(HOMO) :    -0.36969032   (in symmetry 4)
  --------------------------
    gap     :     0.39626021

---> (Re)generating AOTWOINT


     ************************************************************************
     ************************** Output from HERINT **************************
     ************************************************************************


 Threshold for neglecting two-electron integrals:  1.00D-12
 HERMIT - Number of two-electron integrals written:   203838667 ( 23.5% )
 HERMIT - Megabytes written:                           3111.635

  Time used in TWOINT     is      39.38 seconds

 2-el. integral transformation level 5: Total CPU and WALL times (sec)     410.281     412.224

 MP2 move   0.991739 electrons to unoccupied HF orbitals


@   Hartree-Fock total energy   :          -434.2362651877
@   + MP2 contribution          :            -1.7251554127
@   = MP2 second order energy   :          -435.9614206004

 Natural orbital occupation numbers, symmetry 1 (irrep A1 )
 Sum =    32.00731645; RHF =    32.00000000; Difference =     0.00731645

         1.99928987     1.99907496     1.99876139     1.99875596     1.99875138
         1.99874637     1.98695811     1.98412710     1.97952856     1.97256249
         1.96900978     1.96842695     1.96537538     1.96218289     1.95516493
         1.94677915     0.04256169     0.03423512     0.02557124     0.02376463
         0.01918553     0.01861792     0.01723195     0.01648544     0.01378847
         0.01267788     0.01165450     0.00982296     0.00852473     0.00788393
         0.00742115     0.00666410     0.00563848     0.00450165     0.00307899
         0.00294476     0.00269510     0.00260832     0.00219886     0.00199212
         0.00185320     0.00167024     0.00159152     0.00130916     0.00120310
         0.00116212     0.00105973     0.00096114     0.00071603     0.00065131
         0.00061205     0.00053598     0.00049896     0.00046304     0.00043909
         0.00041643     0.00040137     0.00038699     0.00037684     0.00035081
         0.00034139     0.00032283     0.00031236     0.00028989     0.00026680
         0.00025931     0.00022565     0.00021405     0.00020233     0.00019541
         0.00018587     0.00018532     0.00017570     0.00016988     0.00016794
         0.00016164     0.00015565     0.00014951     0.00014075     0.00013298
         0.00012531     0.00012373     0.00012175     0.00011083     0.00010509
         0.00009364     0.00007745     0.00007119     0.00005755     0.00005472
         0.00005120     0.00003961     0.00003412     0.00002764     0.00002048
         0.00001775     0.00001453     0.00001241     0.00001117     0.00000933
         0.00000873     0.00000836     0.00000687     0.00000310     0.00000285
         0.00000196     0.00000102     0.00000055     0.00000036     0.00000018
         0.00000016     0.00000000    -0.00000010    -0.00000051    -0.00005571

 Natural orbital occupation numbers, symmetry 2 (irrep B1 )
 Sum =    21.95409728; RHF =    22.00000000; Difference =    -0.04590272

         1.99928975     1.99875711     1.99875075     1.98416279     1.98002257
         1.97275505     1.96274298     1.96062247     1.95483078     1.95433059
         1.94651323     0.03824494     0.02540665     0.02372507     0.01907828
         0.01660362     0.01595298     0.01515241     0.01122785     0.01050469
         0.00911961     0.00768630     0.00576224     0.00539562     0.00513732
         0.00398357     0.00312641     0.00272930     0.00240552     0.00212743
         0.00173292     0.00162206     0.00151940     0.00131791     0.00117688
         0.00102187     0.00096834     0.00069480     0.00064144     0.00056790
         0.00049190     0.00044010     0.00042321     0.00037368     0.00035255
         0.00033896     0.00030443     0.00029234     0.00026997     0.00025978
         0.00023750     0.00021133     0.00019852     0.00018789     0.00018267
         0.00017782     0.00017024     0.00016935     0.00016009     0.00015423
         0.00014365     0.00013376     0.00012876     0.00012579     0.00011876
         0.00011198     0.00009495     0.00008942     0.00006797     0.00005505
         0.00004561     0.00003702     0.00003060     0.00002850     0.00002341
         0.00001506     0.00001433     0.00001140     0.00001058     0.00000857
         0.00000469     0.00000352     0.00000180     0.00000124     0.00000058
         0.00000027     0.00000014    -0.00000003    -0.00000021    -0.00000068
        -0.00001715

 Natural orbital occupation numbers, symmetry 3 (irrep B2 )
 Sum =     6.07741159; RHF =     6.00000000; Difference =     0.07741159

         1.95083080     1.94423312     1.90914403     0.10191644     0.06691741
         0.02956787     0.01040727     0.01028173     0.00870966     0.00795592
         0.00617227     0.00528301     0.00449995     0.00387756     0.00342013
         0.00305966     0.00151093     0.00143681     0.00099654     0.00088795
         0.00086240     0.00066042     0.00060659     0.00049543     0.00047291
         0.00041712     0.00033341     0.00029026     0.00025031     0.00023050
         0.00019723     0.00019556     0.00018981     0.00017677     0.00015350
         0.00013003     0.00012160     0.00011113     0.00010212     0.00008346
         0.00008029     0.00006194     0.00003557     0.00001992     0.00001043
         0.00000749     0.00000506     0.00000124

 Natural orbital occupation numbers, symmetry 4 (irrep A2 )
 Sum =     3.96117468; RHF =     4.00000000; Difference =    -0.03882532

         1.91660439     1.90842534     0.06641427     0.01463887     0.01039539
         0.00928960     0.00793194     0.00570892     0.00513043     0.00405345
         0.00356417     0.00153859     0.00120207     0.00093391     0.00077882
         0.00072851     0.00067308     0.00056335     0.00040719     0.00037012
         0.00034054     0.00029704     0.00021441     0.00019696     0.00016299
         0.00013288     0.00011667     0.00010383     0.00009345     0.00006942
         0.00005067     0.00002057     0.00001750     0.00000531

 Time used for MP2 natural orbitals :     441.984 CPU seconds,     443.923 wall seconds.

 CPU and wall time for MP2 :     441.984     443.923


        SIRIUS MCSCF optimization (SIROPT)
 ================================================


 Fock matrix screening setting for SIRCNO: IFTHRS =    9


 ----- Output from SIRIUS CI module (CICTL) -----




 2-el. integral transformation level 0: Total CPU and WALL times (sec)     101.078     101.106


 --- SIRCI.CIST1: plus combination of all degenerate
                 configurations is used as start vectors.


 (CIST1) 8 lowest diagonal elements:

 Element no. Config.no.    Active energy      Total energy

         1 :          1    -17.1410919097   -434.0039442491
         2 :         22    -17.0367066601   -433.8995589995
         3 :         28    -16.8812107298   -433.7440630692
         4 :          5    -16.8625420694   -433.7253944088
         5 :          6    -16.8619570244   -433.7248093638
         6 :          3    -16.8247907349   -433.6876430743
         7 :         24    -16.7729688086   -433.6358211480
         8 :          2    -16.7710191009   -433.6338714403


 Convergence threshold for CI optimization :     0.00000500



 *** Reached maximum number of CI iterations:    3
              1 CI roots are not converged.


@ Final CI energies and residuals in symmetry 1 (irrep A1 )
@    1     -434.039404635755318       2.80D-03

   --- OUTPUT FROM SIRCNO     Keyword = FD+NO 


 Occupations of CAS natural orbitals:

 Symmetry  1 ( irrep A1  in C2v )

   1.999850718

 Symmetry  2 ( irrep B1  in C2v )

   1.999853675

 Symmetry  3 ( irrep B2  in C2v )

   1.994351889   0.087871186

 Symmetry  4 ( irrep A2  in C2v )

   1.918152636   1.001841567   0.998078329


 --- MACRO ITERATION  1 ---
 --------------------------

 2-el. integral transformation level 3: Total CPU and WALL times (sec)     101.594     101.605

 Fock matrix screening setting for this macro iteration: 10^( -9)

 Total MCSCF energy       :          -434.039404638104486  (MACRO    1)

 - Nuclear repulsion      :           413.803377248498634
 - Inactive energy        :          -830.666229588542365
 - Active energy          :           -17.176552298060773

 Norm of total gradient   :             0.671076136237
 -    of CI gradient      :             0.005592405162
 -    of orbital gradient :             0.671052833710
      Virial theorem: -V/T =      1.998721
@    MULPOP   C       1.50; C   _1  0.30; C   _2  0.30; C   _1  0.49; C   _2  0.49; C       0.30; N       0.37; O   _1 -0.68; O   _2 -0.68; H   _1 -0.49; 
@             H   _2 -0.49; H   _1 -0.47; H   _2 -0.47; H      -0.47; 

 Residual norm when dim(red L) =   5
 NEO root     CSF        orbital          total
    1     0.09357212     0.03918737     0.10144649 converged

 (NEONEX) NEO vector is converged.

   --- OUTPUT FROM SIRCNO     Keyword = FD+NO 


 Occupations of CAS natural orbitals:

 Symmetry  1 ( irrep A1  in C2v )

   1.999850718

 Symmetry  2 ( irrep B1  in C2v )

   1.999853675

 Symmetry  3 ( irrep B2  in C2v )

   1.994351889   0.087871186

 Symmetry  4 ( irrep A2  in C2v )

   1.918152636   1.001841567   0.998078329


 --- MACRO ITERATION  2 ---
 --------------------------

 2-el. integral transformation level 3: Total CPU and WALL times (sec)     101.391     101.490

 Fock matrix screening setting for this macro iteration: 10^( -9)

 Total MCSCF energy       :          -434.104795747051185  (MACRO    2)

 - Nuclear repulsion      :           413.803377248498634
 - Inactive energy        :          -830.156040352480886
 - Active energy          :           -17.752132643068936

 Norm of total gradient   :             0.079886704825
 -    of CI gradient      :             0.057288091807
 -    of orbital gradient :             0.055677285718
      Virial theorem: -V/T =      2.000646
@    MULPOP   C       2.11; C   _1  0.08; C   _2  0.08; C   _1  0.42; C   _2  0.42; C       0.34; N       0.42; O   _1 -0.82; O   _2 -0.82; H   _1 -0.46; 
@             H   _2 -0.46; H   _1 -0.45; H   _2 -0.45; H      -0.44; 

 Residual norm when dim(red L) =  10
 NEO root     CSF        orbital          total
    1     0.00842434     0.00670249     0.01076535 converged

 (NEONEX) NEO vector is converged.

   --- OUTPUT FROM SIRCNO     Keyword = FD+NO 


 Occupations of CAS natural orbitals:

 Symmetry  1 ( irrep A1  in C2v )

   1.999847704

 Symmetry  2 ( irrep B1  in C2v )

   1.999603505

 Symmetry  3 ( irrep B2  in C2v )

   1.984769575   0.131521054

 Symmetry  4 ( irrep A2  in C2v )

   1.883288223   1.006584158   0.994385781


 --- MACRO ITERATION  3 ---
 --------------------------

 2-el. integral transformation level 3: Total CPU and WALL times (sec)     101.938     101.986

 Fock matrix screening setting for this macro iteration: 10^( -9)

 Total MCSCF energy       :          -434.107614647306718  (MACRO    3)

 - Nuclear repulsion      :           413.803377248498634
 - Inactive energy        :          -829.685844360723877
 - Active energy          :           -18.225147535081490

 Norm of total gradient   :             0.045371110885
 -    of CI gradient      :             0.033711873569
 -    of orbital gradient :             0.030365231489
      Virial theorem: -V/T =      2.000559
@    MULPOP   C       2.09; C   _1  0.09; C   _2  0.09; C   _1  0.40; C   _2  0.40; C       0.37; N       0.41; O   _1 -0.80; O   _2 -0.80; H   _1 -0.45; 
@             H   _2 -0.45; H   _1 -0.45; H   _2 -0.45; H      -0.44; 

 (SIRNEO) iteration (  3,  8)
 Micro iteration termination criterion met, EVAL(ISTATE+1) = -7.85D-04

   --- OUTPUT FROM SIRCNO     Keyword = FD+NO 


 Occupations of CAS natural orbitals:

 Symmetry  1 ( irrep A1  in C2v )

   1.999915843

 Symmetry  2 ( irrep B1  in C2v )

   1.999298201

 Symmetry  3 ( irrep B2  in C2v )

   1.983070326   0.131918516

 Symmetry  4 ( irrep A2  in C2v )

   1.885923825   1.001439646   0.998433644


 --- MACRO ITERATION  4 ---
 --------------------------

 2-el. integral transformation level 3: Total CPU and WALL times (sec)     101.781     101.788

 Fock matrix screening setting for this macro iteration: 10^( -9)

 Total MCSCF energy       :          -434.110806824337487  (MACRO    4)

 - Nuclear repulsion      :           413.803377248498634
 - Inactive energy        :          -828.544946548248163
 - Active energy          :           -19.369237524587945

 Norm of total gradient   :             0.045737093849
 -    of CI gradient      :             0.031989941093
 -    of orbital gradient :             0.032688307124
      Virial theorem: -V/T =      2.000502
@    MULPOP   C       2.09; C   _1  0.09; C   _2  0.09; C   _1  0.40; C   _2  0.40; C       0.37; N       0.42; O   _1 -0.81; O   _2 -0.81; H   _1 -0.45; 
@             H   _2 -0.45; H   _1 -0.45; H   _2 -0.45; H      -0.44; 

 Residual norm when dim(red L) =  10
 NEO root     CSF        orbital          total
    1     0.00549234     0.00348403     0.00650417 converged

 (NEONEX) NEO vector is converged.

   --- OUTPUT FROM SIRCNO     Keyword = FD+NO 


 Occupations of CAS natural orbitals:

 Symmetry  1 ( irrep A1  in C2v )

   1.999744737

 Symmetry  2 ( irrep B1  in C2v )

   1.998346898

 Symmetry  3 ( irrep B2  in C2v )

   1.984684746   0.113798856

 Symmetry  4 ( irrep A2  in C2v )

   1.903583805   1.000026128   0.999814830


 --- MACRO ITERATION  5 ---
 --------------------------

 2-el. integral transformation level 3: Total CPU and WALL times (sec)     102.750     102.757

 Fock matrix screening setting for this macro iteration: 10^( -9)

 Total MCSCF energy       :          -434.112000043839089  (MACRO    5)

 - Nuclear repulsion      :           413.803377248498634
 - Inactive energy        :          -828.067256816781992
 - Active energy          :           -19.848120475555739

 Norm of total gradient   :             0.032006655130
 -    of CI gradient      :             0.030708538752
 -    of orbital gradient :             0.009022838817
      Virial theorem: -V/T =      2.000518
@    MULPOP   C       2.08; C   _1  0.09; C   _2  0.09; C   _1  0.40; C   _2  0.40; C       0.36; N       0.44; O   _1 -0.81; O   _2 -0.81; H   _1 -0.45; 
@             H   _2 -0.45; H   _1 -0.45; H   _2 -0.45; H      -0.44; 

 (SIRNEO) iteration (  5,  7)
 Micro iteration termination criterion met, EVAL(ISTATE+1) = -8.50D-05

   --- OUTPUT FROM SIRCNO     Keyword = FD+NO 


 Occupations of CAS natural orbitals:

 Symmetry  1 ( irrep A1  in C2v )

   1.999751589

 Symmetry  2 ( irrep B1  in C2v )

   1.999340702

 Symmetry  3 ( irrep B2  in C2v )

   1.985904612   0.116800935

 Symmetry  4 ( irrep A2  in C2v )

   1.898374333   1.000027194   0.999800634


 --- MACRO ITERATION  6 ---
 --------------------------

 2-el. integral transformation level 3: Total CPU and WALL times (sec)     102.938     102.998

 Fock matrix screening setting for this macro iteration: 10^( -9)

 Total MCSCF energy       :          -434.112401959192880  (MACRO    6)

 - Nuclear repulsion      :           413.803377248498634
 - Inactive energy        :          -826.878391000073862
 - Active energy          :           -21.037388207617628

 Norm of total gradient   :             0.013863523161
 -    of CI gradient      :             0.005501727280
 -    of orbital gradient :             0.012725103983
      Virial theorem: -V/T =      2.000517
@    MULPOP   C       2.08; C   _1  0.10; C   _2  0.10; C   _1  0.40; C   _2  0.40; C       0.37; N       0.44; O   _1 -0.81; O   _2 -0.81; H   _1 -0.45; 
@             H   _2 -0.45; H   _1 -0.45; H   _2 -0.45; H      -0.44; 

 Residual norm when dim(red L) =  10
 NEO root     CSF        orbital          total
    1     0.00215735     0.00137969     0.00256081 converged

 (NEONEX) NEO vector is converged.

   --- OUTPUT FROM SIRCNO     Keyword = FD+NO 


 Occupations of CAS natural orbitals:

 Symmetry  1 ( irrep A1  in C2v )

   1.999397388

 Symmetry  2 ( irrep B1  in C2v )

   1.999216693

 Symmetry  3 ( irrep B2  in C2v )

   1.986128833   0.117235118

 Symmetry  4 ( irrep A2  in C2v )

   1.898193678   1.000044449   0.999783841


 --- MACRO ITERATION  7 ---
 --------------------------

 2-el. integral transformation level 3: Total CPU and WALL times (sec)     102.000     102.013

 Fock matrix screening setting for this macro iteration: 10^( -9)

 Total MCSCF energy       :          -434.112796738948816  (MACRO    7)

 - Nuclear repulsion      :           413.803377248498634
 - Inactive energy        :          -826.913318265780163
 - Active energy          :           -21.002855721667313

 Norm of total gradient   :             0.008685698559
 -    of CI gradient      :             0.008429394284
 -    of orbital gradient :             0.002094438221
      Virial theorem: -V/T =      2.000521
@    MULPOP   C       2.08; C   _1  0.09; C   _2  0.09; C   _1  0.40; C   _2  0.40; C       0.37; N       0.44; O   _1 -0.81; O   _2 -0.81; H   _1 -0.45; 
@             H   _2 -0.45; H   _1 -0.45; H   _2 -0.45; H      -0.44; 

 Residual norm when dim(red L) =  10
 NEO root     CSF        orbital          total
    1     0.00113836     0.00058865     0.00128155 converged

 (NEONEX) NEO vector is converged.

   --- OUTPUT FROM SIRCNO     Keyword = FD+NO 


 Occupations of CAS natural orbitals:

 Symmetry  1 ( irrep A1  in C2v )

   1.998203419

 Symmetry  2 ( irrep B1  in C2v )

   1.999488422

 Symmetry  3 ( irrep B2  in C2v )

   1.986338859   0.117052481

 Symmetry  4 ( irrep A2  in C2v )

   1.899080319   1.000050891   0.999785610


 --- MACRO ITERATION  8 ---
 --------------------------

 2-el. integral transformation level 3: Total CPU and WALL times (sec)     102.422     102.463

 Fock matrix screening setting for this macro iteration: 10^( -9)

 Total MCSCF energy       :          -434.113017641030865  (MACRO    8)

 - Nuclear repulsion      :           413.803377248498634
 - Inactive energy        :          -827.105250542806402
 - Active energy          :           -20.811144346723108

 Norm of total gradient   :             0.014992669123
 -    of CI gradient      :             0.014711839883
 -    of orbital gradient :             0.002888233835
      Virial theorem: -V/T =      2.000514
@    MULPOP   C       2.08; C   _1  0.09; C   _2  0.09; C   _1  0.40; C   _2  0.40; C       0.37; N       0.43; O   _1 -0.81; O   _2 -0.81; H   _1 -0.45; 
@             H   _2 -0.45; H   _1 -0.45; H   _2 -0.45; H      -0.44; 

 Residual norm when dim(red L) =  18
 NEO root     CSF        orbital          total
    1     0.00009409     0.00005992     0.00011154 converged

 (NEONEX) NEO vector is converged.

   --- OUTPUT FROM SIRCNO     Keyword = FD+NO 


 Occupations of CAS natural orbitals:

 Symmetry  1 ( irrep A1  in C2v )

   1.998655787

 Symmetry  2 ( irrep B1  in C2v )

   1.999533623

 Symmetry  3 ( irrep B2  in C2v )

   1.986356836   0.116686610

 Symmetry  4 ( irrep A2  in C2v )

   1.898936452   1.000047150   0.999783542


 --- MACRO ITERATION  9 ---
 --------------------------

 2-el. integral transformation level 3: Total CPU and WALL times (sec)     101.750     101.771

 Fock matrix screening setting for this macro iteration: 10^( -9)

 Total MCSCF energy       :          -434.113080585601836  (MACRO    9)

 - Nuclear repulsion      :           413.803377248498634
 - Inactive energy        :          -827.020003267105494
 - Active energy          :           -20.896454566994976

 Norm of total gradient   :             0.001067994800
 -    of CI gradient      :             0.001051441762
 -    of orbital gradient :             0.000187304868
      Virial theorem: -V/T =      2.000517
@    MULPOP   C       2.08; C   _1  0.09; C   _2  0.09; C   _1  0.40; C   _2  0.40; C       0.37; N       0.43; O   _1 -0.81; O   _2 -0.81; H   _1 -0.45; 
@             H   _2 -0.45; H   _1 -0.45; H   _2 -0.45; H      -0.44; 

 Residual norm when dim(red L) =  21
 NEO root     CSF        orbital          total
    1     0.00000327     0.00000508     0.00000604 converged

 (NEONEX) NEO vector is converged.

   --- OUTPUT FROM SIRCNO     Keyword = FD+NO 


 Occupations of CAS natural orbitals:

 Symmetry  1 ( irrep A1  in C2v )

   1.998699936

 Symmetry  2 ( irrep B1  in C2v )

   1.999524655

 Symmetry  3 ( irrep B2  in C2v )

   1.986351632   0.116674646

 Symmetry  4 ( irrep A2  in C2v )

   1.898918472   1.000046789   0.999783870


 --- MACRO ITERATION 10 ---
 --------------------------

 2-el. integral transformation level 3: Total CPU and WALL times (sec)     102.375     102.404

 Fock matrix screening setting for this macro iteration: 10^( -9)

 Total MCSCF energy       :          -434.113081743036503  (MACRO   10)

 - Nuclear repulsion      :           413.803377248498634
 - Inactive energy        :          -827.013573588810459
 - Active energy          :           -20.902885402724660

 Norm of total gradient   :             0.000049933098
 -    of CI gradient      :             0.000049365459
 -    of orbital gradient :             0.000007507714
      Virial theorem: -V/T =      2.000518
@    MULPOP   C       2.08; C   _1  0.09; C   _2  0.09; C   _1  0.40; C   _2  0.40; C       0.37; N       0.43; O   _1 -0.81; O   _2 -0.81; H   _1 -0.45; 
@             H   _2 -0.45; H   _1 -0.45; H   _2 -0.45; H      -0.44; 

 Residual norm when dim(red L) =   4
 NEO root     CSF        orbital          total
    1     0.00000318     0.00000724     0.00000791 converged

 (NEONEX) NEO vector is converged.

   --- OUTPUT FROM SIRCNO     Keyword = FD+NO 


 Occupations of CAS natural orbitals:

 Symmetry  1 ( irrep A1  in C2v )

   1.998701908

 Symmetry  2 ( irrep B1  in C2v )

   1.999524427

 Symmetry  3 ( irrep B2  in C2v )

   1.986351537   0.116672210

 Symmetry  4 ( irrep A2  in C2v )

   1.898919242   1.000046777   0.999783899


 --- MACRO ITERATION 11 ---
 --------------------------

 2-el. integral transformation level 3: Total CPU and WALL times (sec)     102.547     102.637

 Fock matrix screening setting for this macro iteration: 10^( -9)

 Total MCSCF energy       :          -434.113081744047804  (MACRO   11)

 - Nuclear repulsion      :           413.803377248498634
 - Inactive energy        :          -827.013149686039128
 - Active energy          :           -20.903309306507285

 Norm of total gradient   :             0.000007909204
 -    of CI gradient      :             0.000003187986
 -    of orbital gradient :             0.000007238249
      Virial theorem: -V/T =      2.000518
@    MULPOP   C       2.08; C   _1  0.09; C   _2  0.09; C   _1  0.40; C   _2  0.40; C       0.37; N       0.43; O   _1 -0.81; O   _2 -0.81; H   _1 -0.45; 
@             H   _2 -0.45; H   _1 -0.45; H   _2 -0.45; H      -0.44; 

 (SIRSTP) Energy difference;
 actual, predicted and ratio:  -0.000000001011301  -0.000000001003698    1.007575
 Close to convergence, ratio set to one.

 *** Optimization control: MCSCF converged ***
     Number of macro iterations used           11
[...]

       No.  Residual tot.,    conf., and orb.    Bnorm      Frequency 
      ----------------------------------------------------------------
         1    8.50623D+00  6.91D+00  4.96D+00  4.08D+02    0.00000D+00

 ** RSPCTL MICROITERATION NUMBER    7

 *** INFO, negative eigenvalues in reduced matrix. Symmetry  4,  triplet       F Dimension of reduced matrix =    16

 GP * SOLUTION vector at frequency     0.00000 a.u.
 after    8 linear transformations is      1.28957248D+04
 INERTIA (POS,ZER,NEG) of reduced matrix is   15    0    1
 Determinant of reduced matrix is -2.42 * 10 **-16.0

       No.  Residual tot.,    conf., and orb.    Bnorm      Frequency 
      ----------------------------------------------------------------
         1    5.54504D+00  1.02D+00  5.45D+00  4.68D+02    0.00000D+00

 ** RSPCTL MICROITERATION NUMBER    8

 *** INFO, negative eigenvalues in reduced matrix. Symmetry  4,  triplet       F Dimension of reduced matrix =    18

 GP * SOLUTION vector at frequency     0.00000 a.u.
 after    9 linear transformations is      1.29015199D+04
 INERTIA (POS,ZER,NEG) of reduced matrix is   16    0    2
 Determinant of reduced matrix is  2.57 * 10 **-17.0

       No.  Residual tot.,    conf., and orb.    Bnorm      Frequency 
      ----------------------------------------------------------------
         1    2.27542D+00  1.54D+00  1.67D+00  3.04D+02    0.00000D+00

 ** RSPCTL MICROITERATION NUMBER    9

 *** INFO, negative eigenvalues in reduced matrix. Symmetry  4,  triplet       F Dimension of reduced matrix =    20

 GP * SOLUTION vector at frequency     0.00000 a.u.
 after   10 linear transformations is      1.29029069D+04
 INERTIA (POS,ZER,NEG) of reduced matrix is   18    0    2
 Determinant of reduced matrix is  2.24 * 10 **-19.0

       No.  Residual tot.,    conf., and orb.    Bnorm      Frequency 
      ----------------------------------------------------------------
         1    1.61617D+00  1.50D+00  6.10D-01  3.03D+02    0.00000D+00

 ** RSPCTL MICROITERATION NUMBER   10

 *** INFO, negative eigenvalues in reduced matrix. Symmetry  4,  triplet       F Dimension of reduced matrix =    22

 GP * SOLUTION vector at frequency     0.00000 a.u.
 after   11 linear transformations is      1.29046490D+04
 INERTIA (POS,ZER,NEG) of reduced matrix is   20    0    2
 Determinant of reduced matrix is  2.69 * 10 **-19.0

       No.  Residual tot.,    conf., and orb.    Bnorm      Frequency 
      ----------------------------------------------------------------
         1    9.04962D-01  4.09D-01  8.07D-01  3.02D+02    0.00000D+00

 ** RSPCTL MICROITERATION NUMBER   11

 *** INFO, negative eigenvalues in reduced matrix. Symmetry  4,  triplet       F Dimension of reduced matrix =    24

 GP * SOLUTION vector at frequency     0.00000 a.u.
 after   12 linear transformations is      1.29049002D+04
 INERTIA (POS,ZER,NEG) of reduced matrix is   22    0    2
 Determinant of reduced matrix is  1.04 * 10 **-20.0

       No.  Residual tot.,    conf., and orb.    Bnorm      Frequency 
      ----------------------------------------------------------------
         1    5.28703D-01  4.33D-01  3.04D-01  3.02D+02    0.00000D+00

 ** RSPCTL MICROITERATION NUMBER   12

 *** INFO, negative eigenvalues in reduced matrix. Symmetry  4,  triplet       F Dimension of reduced matrix =    26

 GP * SOLUTION vector at frequency     0.00000 a.u.
 after   13 linear transformations is      1.29050630D+04
 INERTIA (POS,ZER,NEG) of reduced matrix is   24    0    2
 Determinant of reduced matrix is  1.12 * 10 **-20.0

       No.  Residual tot.,    conf., and orb.    Bnorm      Frequency 
      ----------------------------------------------------------------
         1    3.19456D-01  1.02D-01  3.03D-01  3.02D+02    0.00000D+00

 ** RSPCTL MICROITERATION NUMBER   13

 *** INFO, negative eigenvalues in reduced matrix. Symmetry  4,  triplet       F Dimension of reduced matrix =    28

 GP * SOLUTION vector at frequency     0.00000 a.u.
 after   14 linear transformations is      1.29051122D+04
 INERTIA (POS,ZER,NEG) of reduced matrix is   26    0    2
 Determinant of reduced matrix is  2.73 * 10 **-22.0

       No.  Residual tot.,    conf., and orb.    Bnorm      Frequency 
      ----------------------------------------------------------------
         1    1.70413D-01  1.13D-01  1.28D-01  3.02D+02    0.00000D+00

 *** THE REQUESTED    1 SOLUTION VECTORS CONVERGED

 Convergence of RSP solution vectors, threshold = 1.00D-03
 ---------------------------------------------------------------
 (dimension of paired reduced space:   28)
 RSP solution vector no.    1; norm of residual   5.65D-04

 *** RSPCTL MICROITERATIONS CONVERGED
    XDIPLEN     YDIPLEN      freq1     freq2                Norm
 ---------------------------------------------------------------
                          0.058400 -0.058400        301.85299212


 Perturbation symmetry.     KSYMOP:       1
 Perturbation spin symmetry.TRPLET:       F
 Orbital variables.         KZWOPT:    2762
 Configuration variables.   KZCONF:      56
 Total number of variables. KZVAR :    2818


 CRLRV2 -- linear response calc for sym:  1
 CRLRV2 -- operator label1: YDIPLEN 
 CRLRV2 -- operator label2: YDIPLEN 
 CRLRV2 -- freqr1 :   5.840000D-02
 CRLRV2 -- freqr2 :   5.840000D-02



 ---  SOLVING SETS OF LINEAR EQUATIONS FOR LINEAR RESPONSE PROPERTIES ---

 Operator symmetry = 1  ( A1 ); triplet =   F


 ** RSPCTL MICROITERATION NUMBER    1

       No.  Residual tot.,    conf., and orb.    Bnorm      Frequency 
      ----------------------------------------------------------------
         1    3.73402D+01  3.16D+00  3.72D+01  3.05D+02    1.16800D-01

 ** RSPCTL MICROITERATION NUMBER    2

       No.  Residual tot.,    conf., and orb.    Bnorm      Frequency 
      ----------------------------------------------------------------
         1    2.30495D+01  3.93D+00  2.27D+01  3.67D+02    1.16800D-01

 ** RSPCTL MICROITERATION NUMBER    3

       No.  Residual tot.,    conf., and orb.    Bnorm      Frequency 
      ----------------------------------------------------------------
         1    1.10929D+01  4.14D+00  1.03D+01  3.83D+02    1.16800D-01

 ** RSPCTL MICROITERATION NUMBER    4

       No.  Residual tot.,    conf., and orb.    Bnorm      Frequency 
      ----------------------------------------------------------------
         1    8.64573D+00  3.83D+00  7.75D+00  3.91D+02    1.16800D-01

 ** RSPCTL MICROITERATION NUMBER    5

       No.  Residual tot.,    conf., and orb.    Bnorm      Frequency 
      ----------------------------------------------------------------
         1    5.12282D+00  3.69D+00  3.56D+00  3.93D+02    1.16800D-01

 ** RSPCTL MICROITERATION NUMBER    6

       No.  Residual tot.,    conf., and orb.    Bnorm      Frequency 
      ----------------------------------------------------------------
         1    5.17440D+00  1.90D+00  4.81D+00  3.94D+02    1.16800D-01

 ** RSPCTL MICROITERATION NUMBER    7

       No.  Residual tot.,    conf., and orb.    Bnorm      Frequency 
      ----------------------------------------------------------------
         1    2.64645D+00  2.13D+00  1.58D+00  3.94D+02    1.16800D-01

 ** RSPCTL MICROITERATION NUMBER    8

       No.  Residual tot.,    conf., and orb.    Bnorm      Frequency 
      ----------------------------------------------------------------
         1    1.84108D+00  5.91D-01  1.74D+00  3.94D+02    1.16800D-01

 ** RSPCTL MICROITERATION NUMBER    9

       No.  Residual tot.,    conf., and orb.    Bnorm      Frequency 
      ----------------------------------------------------------------
         1    1.10229D+00  7.15D-01  8.39D-01  3.95D+02    1.16800D-01

 ** RSPCTL MICROITERATION NUMBER   10

       No.  Residual tot.,    conf., and orb.    Bnorm      Frequency 
      ----------------------------------------------------------------
         1    8.26364D-01  7.46D-01  3.55D-01  3.95D+02    1.16800D-01

 ** RSPCTL MICROITERATION NUMBER   11

       No.  Residual tot.,    conf., and orb.    Bnorm      Frequency 
      ----------------------------------------------------------------
         1    7.81964D-01  9.74D-02  7.76D-01  3.95D+02    1.16800D-01

 ** RSPCTL MICROITERATION NUMBER   12

       No.  Residual tot.,    conf., and orb.    Bnorm      Frequency 
      ----------------------------------------------------------------
         1    2.85110D-01  9.76D-02  2.68D-01  3.95D+02    1.16800D-01

 *** THE REQUESTED    1 SOLUTION VECTORS CONVERGED

 Convergence of RSP solution vectors, threshold = 1.00D-03
 ---------------------------------------------------------------
 (dimension of paired reduced space:   26)
 RSP solution vector no.    1; norm of residual   7.22D-04

 *** RSPCTL MICROITERATIONS CONVERGED
    YDIPLEN     YDIPLEN      freq1     freq2                Norm
 ---------------------------------------------------------------
                          0.058400  0.058400        394.78549013
  Time used in CRVEC2     is       2 hours 29 minutes 42 seconds


 ----- CALCULATING CONTRIBUTIONS TO SECOND HYPERPOLARIZABILITY -----


   Contribution                Term         Accumulated
 ------------------------------------------------------
 Na T[4] Nb Nc Nd    -4993.75619977      -4993.75619977
 Na T[3] Nx Nyz       8587.54392274       3593.78772297
 Na X[3] Ny Nz       12679.23477394      16273.02249691
 Nx A[3] Ny Nz        4226.41159131      20499.43408822
 Na X[2] Nyz        -30028.73773899      -9529.30365077
 Nx A[2] Nyz        -29049.50710965     -38578.81076041

@ Cubic response function value in a.u. for
@ A operator, symmetry, frequency:   ZDIPLEN    1 -0.058400
@ B operator, symmetry, frequency:   ZDIPLEN    1  0.058400
@ C operator, symmetry, frequency:   ZDIPLEN    1 -0.058400
@ D operator, symmetry, frequency:   ZDIPLEN    1  0.058400

@ << A; B, C, D >>  =      -38578.81076041



   Contribution                Term         Accumulated
 ------------------------------------------------------
 Na T[4] Nb Nc Nd     -157.40208754       -157.40208754
 Na T[3] Nx Nyz     -14248.54328984     -14405.94537738
 Na X[3] Ny Nz       10374.87283856      -4031.07253882
 Nx A[3] Ny Nz        2720.27180239      -1310.80073643
 Na X[2] Nyz        -21765.59911622     -23076.39985265
 Nx A[2] Nyz        -19834.01858539     -42910.41843804

@ Cubic response function value in a.u. for
@ A operator, symmetry, frequency:   XDIPLEN    2 -0.058400
@ B operator, symmetry, frequency:   XDIPLEN    2  0.058400
@ C operator, symmetry, frequency:   ZDIPLEN    1 -0.058400
@ D operator, symmetry, frequency:   ZDIPLEN    1  0.058400

@ << A; B, C, D >>  =      -42910.41843804



   Contribution                Term         Accumulated
 ------------------------------------------------------
 Na T[4] Nb Nc Nd     -582.16562959       -582.16562959
 Na T[3] Nx Nyz      -3990.46052981      -4572.62615940
 Na X[3] Ny Nz        1363.75401858      -3208.87214082
 Nx A[3] Ny Nz         674.76404577      -2534.10809506
 Na X[2] Nyz         42707.07834983      40172.97025477
 Nx A[2] Nyz         29687.67619401      69860.64644878

@ Cubic response function value in a.u. for
@ A operator, symmetry, frequency:   YDIPLEN    3 -0.058400
@ B operator, symmetry, frequency:   YDIPLEN    3  0.058400
@ C operator, symmetry, frequency:   ZDIPLEN    1 -0.058400
@ D operator, symmetry, frequency:   ZDIPLEN    1  0.058400

@ << A; B, C, D >>  =       69860.64644878



   Contribution                Term         Accumulated
 ------------------------------------------------------
 Na T[4] Nb Nc Nd      -13.89234777        -13.89234777
 Na T[3] Nx Nyz     -15146.72055808     -15160.61290584
 Na X[3] Ny Nz        9442.45637395      -5718.15653189
 Nx A[3] Ny Nz        2388.85354075      -3329.30299114
 Na X[2] Nyz         -8133.44262210     -11462.74561324
 Nx A[2] Nyz        -10513.50068821     -21976.24630145

@ Cubic response function value in a.u. for
@ A operator, symmetry, frequency:   XDIPLEN    2 -0.058400
@ B operator, symmetry, frequency:   ZDIPLEN    1  0.058400
@ C operator, symmetry, frequency:   XDIPLEN    2 -0.058400
@ D operator, symmetry, frequency:   ZDIPLEN    1  0.058400

@ << A; B, C, D >>  =      -21976.24630145



   Contribution                Term         Accumulated
 ------------------------------------------------------
 Na T[4] Nb Nc Nd     -531.81835512       -531.81835512
 Na T[3] Nx Nyz       1225.80475261        693.98639749
 Na X[3] Ny Nz        1143.58474515       1837.57114265
 Nx A[3] Ny Nz         595.46320568       2433.03434833
 Na X[2] Nyz        -16456.04607929     -14023.01173096
 Nx A[2] Nyz        -11408.00350144     -25431.01523240

@ Cubic response function value in a.u. for
@ A operator, symmetry, frequency:   YDIPLEN    3 -0.058400
@ B operator, symmetry, frequency:   ZDIPLEN    1  0.058400
@ C operator, symmetry, frequency:   YDIPLEN    3 -0.058400
@ D operator, symmetry, frequency:   ZDIPLEN    1  0.058400

@ << A; B, C, D >>  =      -25431.01523240



   Contribution                Term         Accumulated
 ------------------------------------------------------
 Na T[4] Nb Nc Nd     1694.89320644       1694.89320644
 Na T[3] Nx Nyz     -22936.43786621     -21241.54465977
 Na X[3] Ny Nz       13888.65675492      -7352.88790485
 Nx A[3] Ny Nz        5388.18416887      -1964.70373597
 Na X[2] Nyz         -9892.88539834     -11857.58913432
 Nx A[2] Nyz        -10102.84390069     -21960.43303500

@ Cubic response function value in a.u. for
@ A operator, symmetry, frequency:   ZDIPLEN    1 -0.058400
@ B operator, symmetry, frequency:   XDIPLEN    2  0.058400
@ C operator, symmetry, frequency:   ZDIPLEN    1 -0.058400
@ D operator, symmetry, frequency:   XDIPLEN    2  0.058400

@ << A; B, C, D >>  =      -21960.43303500



   Contribution                Term         Accumulated
 ------------------------------------------------------
 Na T[4] Nb Nc Nd   103360.29988498     103360.29988498
 Na T[3] Nx Nyz    -130992.81078987     -27632.51090489
 Na X[3] Ny Nz       89083.67573781      61451.16483292
 Nx A[3] Ny Nz       29694.55857927      91145.72341219
 Na X[2] Nyz        -35736.04074461      55409.68266757
 Nx A[2] Nyz        -43589.36714859      11820.31551898

@ Cubic response function value in a.u. for
@ A operator, symmetry, frequency:   XDIPLEN    2 -0.058400
@ B operator, symmetry, frequency:   XDIPLEN    2  0.058400
@ C operator, symmetry, frequency:   XDIPLEN    2 -0.058400
@ D operator, symmetry, frequency:   XDIPLEN    2  0.058400

@ << A; B, C, D >>  =       11820.31551898



   Contribution                Term         Accumulated
 ------------------------------------------------------
 Na T[4] Nb Nc Nd    -1380.56027364      -1380.56027364
 Na T[3] Nx Nyz      11765.80057718      10385.24030353
 Na X[3] Ny Nz        4700.38470845      15085.62501198
 Nx A[3] Ny Nz        1683.33957225      16768.96458423
 Na X[2] Nyz       -173732.50301520    -156963.53843097
 Nx A[2] Nyz       -117917.21827313    -274880.75670410

@ Cubic response function value in a.u. for
@ A operator, symmetry, frequency:   YDIPLEN    3 -0.058400
@ B operator, symmetry, frequency:   YDIPLEN    3  0.058400
@ C operator, symmetry, frequency:   XDIPLEN    2 -0.058400
@ D operator, symmetry, frequency:   XDIPLEN    2  0.058400

@ << A; B, C, D >>  =     -274880.75670410



   Contribution                Term         Accumulated
 ------------------------------------------------------
 Na T[4] Nb Nc Nd     -991.43394770       -991.43394770
 Na T[3] Nx Nyz       1720.99775494        729.56380723
 Na X[3] Ny Nz        3803.13465742       4532.69846466
 Nx A[3] Ny Nz        1294.14763666       5826.84610132
 Na X[2] Nyz        -19364.48771668     -13537.64161537
 Nx A[2] Nyz        -18530.73853839     -32068.38015376

@ Cubic response function value in a.u. for
@ A operator, symmetry, frequency:   YDIPLEN    3 -0.058400
@ B operator, symmetry, frequency:   XDIPLEN    2  0.058400
@ C operator, symmetry, frequency:   YDIPLEN    3 -0.058400
@ D operator, symmetry, frequency:   XDIPLEN    2  0.058400

@ << A; B, C, D >>  =      -32068.38015376



   Contribution                Term         Accumulated
 ------------------------------------------------------
 Na T[4] Nb Nc Nd     -391.10550191       -391.10550191
 Na T[3] Nx Nyz      -1766.30257293      -2157.40807484
 Na X[3] Ny Nz        1569.69568382       -587.71239102
 Nx A[3] Ny Nz         308.96360397       -278.74878704
 Na X[2] Nyz         -9149.04353467      -9427.79232171
 Nx A[2] Nyz        -16016.26962733     -25444.06194904

@ Cubic response function value in a.u. for
@ A operator, symmetry, frequency:   ZDIPLEN    1 -0.058400
@ B operator, symmetry, frequency:   YDIPLEN    3  0.058400
@ C operator, symmetry, frequency:   ZDIPLEN    1 -0.058400
@ D operator, symmetry, frequency:   YDIPLEN    3  0.058400

@ << A; B, C, D >>  =      -25444.06194904



   Contribution                Term         Accumulated
 ------------------------------------------------------
 Na T[4] Nb Nc Nd     -757.91532150       -757.91532150
 Na T[3] Nx Nyz       3186.87908855       2428.96376705
 Na X[3] Ny Nz        2811.60142567       5240.56519271
 Nx A[3] Ny Nz         910.76439104       6151.32958375
 Na X[2] Nyz        -18433.69921681     -12282.36963306
 Nx A[2] Nyz        -19777.16231317     -32059.53194623

@ Cubic response function value in a.u. for
@ A operator, symmetry, frequency:   XDIPLEN    2 -0.058400
@ B operator, symmetry, frequency:   YDIPLEN    3  0.058400
@ C operator, symmetry, frequency:   XDIPLEN    2 -0.058400
@ D operator, symmetry, frequency:   YDIPLEN    3  0.058400

@ << A; B, C, D >>  =      -32059.53194623



   Contribution                Term         Accumulated
 ------------------------------------------------------
 Na T[4] Nb Nc Nd    -1019.93687907      -1019.93687907
 Na T[3] Nx Nyz       4355.03856076       3335.10168170
 Na X[3] Ny Nz        3462.84793039       6797.94961208
 Nx A[3] Ny Nz        1154.28264346       7952.23225555
 Na X[2] Nyz        -19997.66235430     -12045.43009875
 Nx A[2] Nyz        -20206.07101317     -32251.50111192

@ Cubic response function value in a.u. for
@ A operator, symmetry, frequency:   YDIPLEN    3 -0.058400
@ B operator, symmetry, frequency:   YDIPLEN    3  0.058400
@ C operator, symmetry, frequency:   YDIPLEN    3 -0.058400
@ D operator, symmetry, frequency:   YDIPLEN    3  0.058400

@ << A; B, C, D >>  =      -32251.50111192



  Summary of gamma values for a set of frequencies
 -------------------------------------------------

@ B-freq:  0.058400
@ C-freq: -0.058400
@ D-freq:  0.058400

@ gamma(X;X,X,X)     -11820.3155
@ gamma(X;X,Y,Y)     274880.7567
@ gamma(X;Y,Y,X)     274880.7567
@ gamma(X;Y,X,Y)      32059.5319
@ gamma(X;X,Z,Z)      42910.4184
@ gamma(X;Z,Z,X)      42910.4184
@ gamma(X;Z,X,Z)      21976.2463
@ gamma(Y;Y,X,X)     274880.7567
@ gamma(Y;X,X,Y)     274880.7567
@ gamma(Y;X,Y,X)      32068.3802
@ gamma(Y;Y,Y,Y)      32251.5011
@ gamma(Y;Y,Z,Z)     -69860.6464
@ gamma(Y;Z,Z,Y)     -69860.6464
@ gamma(Y;Z,Y,Z)      25431.0152
@ gamma(Z;Z,X,X)      42910.4184
@ gamma(Z;X,X,Z)      42910.4184
@ gamma(Z;X,Z,X)      21960.4330
@ gamma(Z;Z,Y,Y)     -69860.6464
@ gamma(Z;Y,Y,Z)     -69860.6464
@ gamma(Z;Y,Z,Y)      25444.0619
@ gamma(Z;Z,Z,Z)      38578.8108

@ Averaged gamma parallel to the applied field is     88512.784830

  Total CPU  time used in RESPONSE:   7 hours 27 minutes 39 seconds
  Total wall time used in RESPONSE:   7 hours 27 minutes 56 seconds


                   .-------------------------------------------.
                   | End of Dynamic Property Section (RESPONS) |
                   `-------------------------------------------'

  Total CPU  time used in DALTON:   8 hours 59 minutes 28 seconds
  Total wall time used in DALTON:   8 hours 59 minutes 48 seconds

 
     Date and time (Linux)  : Tue Feb 25 09:47:37 2020
     Host name              : Lab2-333-NPs                            
