

     ************************************************************************
     *************** Dalton - An Electronic Structure Program ***************
     ************************************************************************

    This is output from DALTON release Dalton2018.1 (2019)
         ( Web site: http://daltonprogram.org )

   ----------------------------------------------------------------------------

    NOTE:
     
    Dalton is an experimental code for the evaluation of molecular
    properties using (MC)SCF, DFT, CI, and CC wave functions.
    The authors accept no responsibility for the performance of
    the code or for the correctness of the results.
     
    The code (in whole or part) is provided under a licence and
    is not to be reproduced for further distribution without
    the written permission of the authors or their representatives.
     
    See the home page "http://daltonprogram.org" for further information.
     
    If results obtained with this code are published,
    the appropriate citations would be both of:
     
       K. Aidas, C. Angeli, K. L. Bak, V. Bakken, R. Bast,
       L. Boman, O. Christiansen, R. Cimiraglia, S. Coriani,
       P. Dahle, E. K. Dalskov, U. Ekstroem,
       T. Enevoldsen, J. J. Eriksen, P. Ettenhuber, B. Fernandez,
       L. Ferrighi, H. Fliegl, L. Frediani, K. Hald, A. Halkier,
       C. Haettig, H. Heiberg, T. Helgaker, A. C. Hennum,
       H. Hettema, E. Hjertenaes, S. Hoest, I.-M. Hoeyvik,
       M. F. Iozzi, B. Jansik, H. J. Aa. Jensen, D. Jonsson,
       P. Joergensen, J. Kauczor, S. Kirpekar,
       T. Kjaergaard, W. Klopper, S. Knecht, R. Kobayashi, H. Koch,
       J. Kongsted, A. Krapp, K. Kristensen, A. Ligabue,
       O. B. Lutnaes, J. I. Melo, K. V. Mikkelsen, R. H. Myhre,
       C. Neiss, C. B. Nielsen, P. Norman, J. Olsen,
       J. M. H. Olsen, A. Osted, M. J. Packer, F. Pawlowski,
       T. B. Pedersen, P. F. Provasi, S. Reine, Z. Rinkevicius,
       T. A. Ruden, K. Ruud, V. Rybkin, P. Salek, C. C. M. Samson,
       A. Sanchez de Meras, T. Saue, S. P. A. Sauer,
       B. Schimmelpfennig, K. Sneskov, A. H. Steindal,
       K. O. Sylvester-Hvid, P. R. Taylor, A. M. Teale,
       E. I. Tellgren, D. P. Tew, A. J. Thorvaldsen, L. Thoegersen,
       O. Vahtras, M. A. Watson, D. J. D. Wilson, M. Ziolkowski
       and H. Agren,
       "The Dalton quantum chemistry program system",
       WIREs Comput. Mol. Sci. 2014, 4:269–284 (doi: 10.1002/wcms.1172)
     
    and
     
       Dalton, a molecular electronic structure program,
       Release Dalton2018.1 (2019), see http://daltonprogram.org
   ----------------------------------------------------------------------------

    Authors in alphabetical order (major contribution(s) in parenthesis):

  Kestutis Aidas,           Vilnius University,           Lithuania   (QM/MM)
  Celestino Angeli,         University of Ferrara,        Italy       (NEVPT2)
  Keld L. Bak,              UNI-C,                        Denmark     (AOSOPPA, non-adiabatic coupling, magnetic properties)
  Vebjoern Bakken,          University of Oslo,           Norway      (DALTON; geometry optimizer, symmetry detection)
  Radovan Bast,             UiT The Arctic U. of Norway,  Norway      (DALTON installation and execution frameworks)
  Pablo Baudin,             University of Valencia,       Spain       (Cholesky excitation energies)
  Linus Boman,              NTNU,                         Norway      (Cholesky decomposition and subsystems)
  Ove Christiansen,         Aarhus University,            Denmark     (CC module)
  Renzo Cimiraglia,         University of Ferrara,        Italy       (NEVPT2)
  Sonia Coriani,            Technical Univ. of Denmark,   Denmark     (CC module, MCD in RESPONS)
  Janusz Cukras,            University of Trieste,        Italy       (MChD in RESPONS)
  Paal Dahle,               University of Oslo,           Norway      (Parallelization)
  Erik K. Dalskov,          UNI-C,                        Denmark     (SOPPA)
  Thomas Enevoldsen,        Univ. of Southern Denmark,    Denmark     (SOPPA)
  Janus J. Eriksen,         Aarhus University,            Denmark     (Polarizable embedding model, TDA)
  Rasmus Faber,             University of Copenhagen,     Denmark     (Vib.avg. NMR with SOPPA, parallel AO-SOPPA)
  Tobias Fahleson,          KTH Stockholm,                Sweden      (Damped cubic response)
  Berta Fernandez,          U. of Santiago de Compostela, Spain       (doublet spin, ESR in RESPONS)
  Lara Ferrighi,            Aarhus University,            Denmark     (PCM Cubic response)
  Heike Fliegl,             University of Oslo,           Norway      (CCSD(R12))
  Luca Frediani,            UiT The Arctic U. of Norway,  Norway      (PCM)
  Bin Gao,                  UiT The Arctic U. of Norway,  Norway      (Gen1Int library)
  Christof Haettig,         Ruhr-University Bochum,       Germany     (CC module)
  Kasper Hald,              Aarhus University,            Denmark     (CC module)
  Asger Halkier,            Aarhus University,            Denmark     (CC module)
  Frederik Beyer Hansen,    University of Copenhagen,     Denmark     (Parallel AO-SOPPA)
  Erik D. Hedegaard,        Univ. of Southern Denmark,    Denmark     (Polarizable embedding model, QM/MM)
  Hanne Heiberg,            University of Oslo,           Norway      (geometry analysis, selected one-electron integrals)
  Trygve Helgaker,          University of Oslo,           Norway      (DALTON; ABACUS, ERI, DFT modules, London, and much more)
  Alf Christian Hennum,     University of Oslo,           Norway      (Parity violation)
  Hinne Hettema,            University of Auckland,       New Zealand (quadratic response in RESPONS; SIRIUS supersymmetry)
  Eirik Hjertenaes,         NTNU,                         Norway      (Cholesky decomposition)
  Pi A. B. Haase,           University of Copenhagen,     Denmark     (Triplet AO-SOPPA)
  Maria Francesca Iozzi,    University of Oslo,           Norway      (RPA)
  Christoph Jacob           TU Braunschweig               Germany     (Frozen density embedding model)
  Brano Jansik              Technical Univ. of Ostrava    Czech Rep.  (DFT cubic response)
  Hans Joergen Aa. Jensen,  Univ. of Southern Denmark,    Denmark     (DALTON; SIRIUS, RESPONS, ABACUS modules, London, and much more)
  Dan Jonsson,              UiT The Arctic U. of Norway,  Norway      (cubic response in RESPONS module)
  Poul Joergensen,          Aarhus University,            Denmark     (RESPONS, ABACUS, and CC modules)
  Maciej Kaminski,          University of Warsaw,         Poland      (CPPh in RESPONS)
  Joanna Kauczor,           Linkoeping University,        Sweden      (Complex polarization propagator (CPP) module)
  Sheela Kirpekar,          Univ. of Southern Denmark,    Denmark     (Mass-velocity & Darwin integrals)
  Wim Klopper,              KIT Karlsruhe,                Germany     (R12 code in CC, SIRIUS, and ABACUS modules)
  Stefan Knecht,            ETH Zurich,                   Switzerland (Parallel CI and MCSCF)
  Rika Kobayashi,           Australian National Univ.,    Australia   (DIIS in CC, London in MCSCF)
  Henrik Koch,              NTNU,                         Norway      (CC module, Cholesky decomposition)
  Jacob Kongsted,           Univ. of Southern Denmark,    Denmark     (Polarizable embedding model, QM/MM)
  Andrea Ligabue,           University of Modena,         Italy       (CTOCD, AOSOPPA)
  Nanna H. List             Univ. of Southern Denmark,    Denmark     (Polarizable embedding model)
  Ola B. Lutnaes,           University of Oslo,           Norway      (DFT Hessian)
  Juan I. Melo,             University of Buenos Aires,   Argentina   (LRESC, Relativistic Effects on NMR Shieldings)
  Kurt V. Mikkelsen,        University of Copenhagen,     Denmark     (MC-SCRF and QM/MM)
  Rolf H. Myhre,            NTNU,                         Norway      (Subsystems and CC3)
  Christian Neiss,          Univ. Erlangen-Nuernberg,     Germany     (CCSD(R12))
  Christian B. Nielsen,     University of Copenhagen,     Denmark     (QM/MM)
  Patrick Norman,           KTH Stockholm,                Sweden      (Cubic response and complex frequency response in RESPONS)
  Jeppe Olsen,              Aarhus University,            Denmark     (SIRIUS CI/density modules)
  Jogvan Magnus H. Olsen,   Univ. of Southern Denmark,    Denmark     (Polarizable embedding model, QM/MM)
  Anders Osted,             Copenhagen University,        Denmark     (QM/MM)
  Martin J. Packer,         University of Sheffield,      UK          (SOPPA)
  Filip Pawlowski,          Kazimierz Wielki University,  Poland      (CC3)
  Morten N. Pedersen,       Univ. of Southern Denmark,    Denmark     (Polarizable embedding model)
  Thomas B. Pedersen,       University of Oslo,           Norway      (Cholesky decomposition)
  Patricio F. Provasi,      University of Northeastern,   Argentina   (Analysis of coupling constants in localized orbitals)
  Zilvinas Rinkevicius,     KTH Stockholm,                Sweden      (open-shell DFT, ESR)
  Elias Rudberg,            KTH Stockholm,                Sweden      (DFT grid and basis info)
  Torgeir A. Ruden,         University of Oslo,           Norway      (Numerical derivatives in ABACUS)
  Kenneth Ruud,             UiT The Arctic U. of Norway,  Norway      (DALTON; ABACUS magnetic properties and much more)
  Pawel Salek,              KTH Stockholm,                Sweden      (DALTON; DFT code)
  Claire C. M. Samson       University of Karlsruhe       Germany     (Boys localization, r12 integrals in ERI)
  Alfredo Sanchez de Meras, University of Valencia,       Spain       (CC module, Cholesky decomposition)
  Trond Saue,               Paul Sabatier University,     France      (direct Fock matrix construction)
  Stephan P. A. Sauer,      University of Copenhagen,     Denmark     (SOPPA(CCSD), SOPPA prop., AOSOPPA, vibrational g-factors)
  Andre S. P. Gomes,        CNRS/Universite de Lille,     France      (Frozen density embedding model)
  Bernd Schimmelpfennig,    Forschungszentrum Karlsruhe,  Germany     (AMFI module)
  Kristian Sneskov,         Aarhus University,            Denmark     (Polarizable embedding model, QM/MM)
  Arnfinn H. Steindal,      UiT The Arctic U. of Norway,  Norway      (parallel QM/MM, Polarizable embedding model)
  Casper Steinmann,         Univ. of Southern Denmark,    Denmark     (QFIT, Polarizable embedding model)
  K. O. Sylvester-Hvid,     University of Copenhagen,     Denmark     (MC-SCRF)
  Peter R. Taylor,          VLSCI/Univ. of Melbourne,     Australia   (Symmetry handling ABACUS, integral transformation)
  Andrew M. Teale,          University of Nottingham,     England     (DFT-AC, DFT-D)
  David P. Tew,             University of Bristol,        England     (CCSD(R12))
  Olav Vahtras,             KTH Stockholm,                Sweden      (triplet response, spin-orbit, ESR, TDDFT, open-shell DFT)
  Lucas Visscher,           Vrije Universiteit Amsterdam, Netherlands (Frozen density embedding model)
  David J. Wilson,          La Trobe University,          Australia   (DFT Hessian and DFT magnetizabilities)
  Hans Agren,               KTH Stockholm,                Sweden      (SIRIUS module, RESPONS, MC-SCRF solvation model)
 --------------------------------------------------------------------------------

     Date and time (Linux)  : Sat Feb 22 03:38:38 2020
     Host name              : Lab2-333-NPs                            

 * Work memory size             :  1024000000 =  7.629 gigabytes.

 * Directories for basis set searches:
   1) /home/lab333/dalton/build_2018_atlas
   2) /home/lab333/dalton/build_2018_atlas/basis


Compilation information
-----------------------

 Who compiled             | lab333
 Host                     | Lab2-333-NPs
 System                   | Linux-4.4.0-43-Microsoft
 CMake generator          | Unix Makefiles
 Processor                | x86_64
 64-bit integers          | OFF
 MPI                      | OFF
 Fortran compiler         | /usr/bin/gfortran
 Fortran compiler version | GNU Fortran (Ubuntu 7.3.0-27ubuntu1~18.04) 7.3.0
 C compiler               | /usr/bin/gcc
 C compiler version       | gcc (Ubuntu 7.3.0-27ubuntu1~18.04) 7.3.0
 C++ compiler             | /usr/bin/g++
 C++ compiler version     | g++ (Ubuntu 7.3.0-27ubuntu1~18.04) 7.3.0
 BLAS                     | /usr/lib/x86_64-linux-gnu/libf77blas.so;/usr/lib/x
                          | 86_64-linux-gnu/libcblas.so;/usr/lib/x86_64-linux-
                          | gnu/libatlas.so
 LAPACK                   | /usr/lib/x86_64-linux-gnu/libatlas.so;/usr/lib/x86
                          | _64-linux-gnu/atlas/liblapack.so
 Static linking           | OFF
 Last Git revision        | da625bf48c74028e805616daee31bc5d76b3a20d
 Git branch               | (HEAD detached at Dalton2018.1)
 Configuration time       | 2019-01-18 10:20:51.437510


   Content of the .dal input file
 ----------------------------------

**DALTON INPUT
.RUN RESPONSE
.DIRECT
**WAVE FUNCTIONS
.HF
.MP2
.MCSCF
*CONFIGURATION INPUT
.SPIN MULTIPLICITY
1
.SYMMETRY
1
.INACTIVE ORBITALS
15 10 2 0
.CAS SPACE
1 1 2 3
.ELECTRONS
10
*ORBITAL INPUT
.MOSTART
.HUCKEL
*OPTIMIZATION
.DETERMINANTS
.STATE
1
*CI VECTOR
.PLUS COMBINATIONS
**RESPONSE
*CUBIC
.DIPLEN
.BFREQ
1
0.0584
.CFREQ
1
-0.0584
.DFREQ
1
0.0584
**END OF DALTON INPUT


   Content of the .mol file
 ----------------------------

BASIS
aug-cc-pCVDZ
 nitrobenzene
 Generated by the Dalton Input File Plugin for Avogadro
Atomtypes=4 Angstrom Generators=2 X Y
Charge=6.0 Atoms=4
C        0.0000000000            0.0000000000           -0.0265759623
C       -1.2190534920            0.0000000000           -0.6979856948
C       -1.2105095870            0.0000000000           -2.0897394457
C        0.0000000000            0.0000000000           -2.7841484631
Charge=7.0 Atoms=1
N        0.0000000000            0.0000000000            1.3882625029333333
Charge=8.0 Atoms=1
O       1.0847503743            0.0            1.9569113131333336
Charge=1.0 Atoms=3
H       -2.1410602955            0.0000000000           -0.1327964319
H       -2.1492827751            0.0000000000           -2.6311811056
H        0.0000000000            0.0000000000           -3.8683953478


       *******************************************************************
       *********** Output from DALTON general input processing ***********
       *******************************************************************

 --------------------------------------------------------------------------------
   Overall default print level:    0
   Print level for DALTON.STAT:    1

    AO-direct calculation (in sections where implemented)
    HERMIT 1- and 2-electron integral sections will be executed
    "Old" integral transformation used (limited to max 255 basis functions)
    Wave function sections will be executed (SIRIUS module)
    Dynamic molecular response properties section will be executed (RESPONSE module)
 --------------------------------------------------------------------------------


   ****************************************************************************
   *************** Output of molecule and basis set information ***************
   ****************************************************************************


    The two title cards from your ".mol" input:
    ------------------------------------------------------------------------
 1:  nitrobenzene                                                           
 2:  Generated by the Dalton Input File Plugin for Avogadro                 
    ------------------------------------------------------------------------

  Coordinates are entered in Angstrom and converted to atomic units.
          - Conversion factor : 1 bohr = 0.52917721 A

  Atomic type no.    1
  --------------------
  Nuclear charge:   6.00000
  Number of symmetry independent centers:    4
  Number of basis sets to read;    2
  Basis set file used for this atomic type with Z =   6 :
     "/home/lab333/dalton/build_2018_atlas/basis/aug-cc-pCVDZ"

  Atomic type no.    2
  --------------------
  Nuclear charge:   7.00000
  Number of symmetry independent centers:    1
  Number of basis sets to read;    2
  Basis set file used for this atomic type with Z =   7 :
     "/home/lab333/dalton/build_2018_atlas/basis/aug-cc-pCVDZ"

  Atomic type no.    3
  --------------------
  Nuclear charge:   8.00000
  Number of symmetry independent centers:    1
  Number of basis sets to read;    2
  Basis set file used for this atomic type with Z =   8 :
     "/home/lab333/dalton/build_2018_atlas/basis/aug-cc-pCVDZ"

  Atomic type no.    4
  --------------------
  Nuclear charge:   1.00000
  Number of symmetry independent centers:    3
  Number of basis sets to read;    2
  Basis set file used for this atomic type with Z =   1 :
     "/home/lab333/dalton/build_2018_atlas/basis/aug-cc-pCVDZ"


                         SYMGRP: Point group information
                         -------------------------------

@    Point group: C2v

@  * The irrep name for each symmetry:    1: A1     2: B1     3: B2     4: A2 

   * The point group was generated by:

      Reflection in the yz-plane
      Reflection in the xz-plane

   * Group multiplication table

        |  E   C2z  Oxz  Oyz
   -----+--------------------
     E  |  E   C2z  Oxz  Oyz
    C2z | C2z   E   Oyz  Oxz
    Oxz | Oxz  Oyz   E   C2z
    Oyz | Oyz  Oxz  C2z   E 

   * Character table

        |  E   C2z  Oxz  Oyz
   -----+--------------------
    A1  |   1    1    1    1
    B1  |   1   -1    1   -1
    B2  |   1   -1   -1    1
    A2  |   1    1   -1   -1

   * Direct product table

        | A1   B1   B2   A2 
   -----+--------------------
    A1  | A1   B1   B2   A2 
    B1  | B1   A1   A2   B2 
    B2  | B2   A2   A1   B1 
    A2  | A2   B2   B1   A1 


                                 Isotopic Masses
                                 ---------------

                           C          12.000000
                           C   _1     12.000000
                           C   _2     12.000000
                           C   _1     12.000000
                           C   _2     12.000000
                           C          12.000000
                           N          14.003074
                           O   _1     15.994915
                           O   _2     15.994915
                           H   _1      1.007825
                           H   _2      1.007825
                           H   _1      1.007825
                           H   _2      1.007825
                           H           1.007825

                       Total mass:   123.032029 amu
                       Natural abundance:  92.716 %

 Center-of-mass coordinates (a.u.):    0.000000    0.000000   -0.431034


  Atoms and basis sets
  --------------------

  Number of atom types :    4
  Total number of atoms:   14

  Basis set used is "aug-cc-pCVDZ" from the basis set library.

  label    atoms   charge   prim   cont     basis
  ----------------------------------------------------------------------
  C           6    6.0000    39    27      [11s6p2d|5s4p2d]                                   
  N           1    7.0000    39    27      [11s6p2d|5s4p2d]                                   
  O           2    8.0000    39    27      [11s6p2d|5s4p2d]                                   
  H           5    1.0000    11     9      [5s2p|3s2p]                                        
  ----------------------------------------------------------------------
  total:     14   64.0000   406   288
  ----------------------------------------------------------------------
  Spherical harmonic basis used.

  Threshold for neglecting AO integrals:  1.00D-12


  Symmetry Coordinates
  --------------------

  Number of coordinates in each symmetry:    14   14    9    5


   Interatomic separations (in Angstrom):
   --------------------------------------

            C           C   _1      C   _2      C   _1      C   _2      C     
            ------      ------      ------      ------      ------      ------
 C     :    0.000000
 C   _1:    1.391719    0.000000
 C   _2:    1.391719    2.438107    0.000000
 C   _1:    2.392065    1.391780    2.799956    0.000000
 C   _2:    2.392065    2.799956    1.391780    2.421019    0.000000
 C     :    2.757573    2.416230    2.416230    1.395542    1.395542    0.000000
 N     :    1.414838    2.416304    2.416304    3.682639    3.682639    4.172411
 O   _1:    2.260731    3.515109    2.658292    4.652268    4.048604    4.863572
 O   _2:    2.260731    2.658292    3.515109    4.048604    4.652268    4.863572
 H   _1:    2.143694    1.081451    3.407316    2.166922    3.881063    3.407904
 H   _2:    2.143694    3.407316    1.081451    3.881063    2.166922    3.407904
 H   _1:    3.376890    2.145360    3.883675    1.083722    3.403140    2.154719
 H   _2:    3.376890    3.883675    2.145360    3.403140    1.083722    2.154719
 H     :    3.841819    3.396703    3.396703    2.151500    2.151500    1.084247

            N           O   _1      O   _2      H   _1      H   _2      H   _1
            ------      ------      ------      ------      ------      ------
 N     :    0.000000
 O   _1:    1.224763    0.000000
 O   _2:    1.224763    2.169501    0.000000
 H   _1:    2.626359    3.843531    2.341510    0.000000
 H   _2:    2.626359    2.341510    3.843531    4.282121    0.000000
 H   _1:    4.557998    5.613338    4.709970    2.498398    4.964773    0.000000
 H   _2:    4.557998    4.709970    5.613338    4.964773    2.498398    4.298566
 H     :    5.256658    5.925444    5.925444    4.305675    4.305675    2.479943

            H   _2      H     
            ------      ------
 H   _2:    0.000000
 H     :    2.479943    0.000000


  Max    interatomic separation is    5.9254 Angstrom (   11.1975 Bohr)
  between atoms   14 and    8, "H     " and "O   _1".

  Min HX interatomic separation is    1.0815 Angstrom (    2.0436 Bohr)

  Min YX interatomic separation is    1.2248 Angstrom (    2.3145 Bohr)


  Bond distances (Angstrom):
  --------------------------

                  atom 1     atom 2       distance
                  ------     ------       --------
  bond distance:  C   _1     C            1.391719
  bond distance:  C   _2     C            1.391719
  bond distance:  C   _1     C   _1       1.391780
  bond distance:  C   _2     C   _2       1.391780
  bond distance:  C          C   _1       1.395542
  bond distance:  C          C   _2       1.395542
  bond distance:  N          C            1.414838
  bond distance:  O   _1     N            1.224763
  bond distance:  O   _2     N            1.224763
  bond distance:  H   _1     C   _1       1.081451
  bond distance:  H   _2     C   _2       1.081451
  bond distance:  H   _1     C   _1       1.083722
  bond distance:  H   _2     C   _2       1.083722
  bond distance:  H          C            1.084247


  Bond angles (degrees):
  ----------------------

                  atom 1     atom 2     atom 3         angle
                  ------     ------     ------         -----
  bond angle:     C   _1     C          C   _2       122.311
  bond angle:     C   _1     C          N            118.844
  bond angle:     C   _2     C          N            118.844
  bond angle:     C          C   _1     C   _1       118.493
  bond angle:     C          C   _1     H   _1       119.647
  bond angle:     C   _1     C   _1     H   _1       121.860
  bond angle:     C          C   _2     C   _2       118.493
  bond angle:     C          C   _2     H   _2       119.647
  bond angle:     C   _2     C   _2     H   _2       121.860
  bond angle:     C   _1     C   _1     C            120.192
  bond angle:     C   _1     C   _1     H   _1       119.623
  bond angle:     C          C   _1     H   _1       120.185
  bond angle:     C   _2     C   _2     C            120.192
  bond angle:     C   _2     C   _2     H   _2       119.623
  bond angle:     C          C   _2     H   _2       120.185
  bond angle:     C   _1     C          C   _2       120.319
  bond angle:     C   _1     C          H            119.841
  bond angle:     C   _2     C          H            119.841
  bond angle:     C          N          O   _1       117.664
  bond angle:     C          N          O   _2       117.664
  bond angle:     O   _1     N          O   _2       124.671




 Principal moments of inertia (u*A**2) and principal axes
 --------------------------------------------------------

   IA     127.027245          0.000000    0.000000    1.000000
   IB     381.690577          1.000000    0.000000    0.000000
   IC     508.717822          0.000000    1.000000    0.000000


 Rotational constants
 --------------------

@    The molecule is planar.

               A                   B                   C

           3978.5088           1324.0542            993.4368 MHz
            0.132709            0.044166            0.033137 cm-1


@  Nuclear repulsion energy :  415.511780462993 Hartree


  Symmetry Orbitals
  -----------------

  Number of orbitals in each symmetry:         115   91   48   34


  Symmetry  A1 ( 1)

    1     C        1s         1
    2     C        1s         2
    3     C        1s         3
    4     C        1s         4
    5     C        1s         5
    6     C        2pz        8
    7     C        2pz       11
    8     C        2pz       14
    9     C        2pz       17
   10     C        3d0       20
   11     C        3d2+      22
   12     C        3d0       25
   13     C        3d2+      27
   14     C        1s        28 +   29
   15     C        1s        30 +   31
   16     C        1s        32 +   33
   17     C        1s        34 +   35
   18     C        1s        36 +   37
   19     C        2px       38 -   39
   20     C        2pz       42 +   43
   21     C        2px       44 -   45
   22     C        2pz       48 +   49
   23     C        2px       50 -   51
   24     C        2pz       54 +   55
   25     C        2px       56 -   57
   26     C        2pz       60 +   61
   27     C        3d0       66 +   67
   28     C        3d1+      68 -   69
   29     C        3d2+      70 +   71
   30     C        3d0       76 +   77
   31     C        3d1+      78 -   79
   32     C        3d2+      80 +   81
   33     C        1s        82 +   83
   34     C        1s        84 +   85
   35     C        1s        86 +   87
   36     C        1s        88 +   89
   37     C        1s        90 +   91
   38     C        2px       92 -   93
   39     C        2pz       96 +   97
   40     C        2px       98 -   99
   41     C        2pz      102 +  103
   42     C        2px      104 -  105
   43     C        2pz      108 +  109
   44     C        2px      110 -  111
   45     C        2pz      114 +  115
   46     C        3d0      120 +  121
   47     C        3d1+     122 -  123
   48     C        3d2+     124 +  125
   49     C        3d0      130 +  131
   50     C        3d1+     132 -  133
   51     C        3d2+     134 +  135
   52     C        1s       136
   53     C        1s       137
   54     C        1s       138
   55     C        1s       139
   56     C        1s       140
   57     C        2pz      143
   58     C        2pz      146
   59     C        2pz      149
   60     C        2pz      152
   61     C        3d0      155
   62     C        3d2+     157
   63     C        3d0      160
   64     C        3d2+     162
   65     N        1s       163
   66     N        1s       164
   67     N        1s       165
   68     N        1s       166
   69     N        1s       167
   70     N        2pz      170
   71     N        2pz      173
   72     N        2pz      176
   73     N        2pz      179
   74     N        3d0      182
   75     N        3d2+     184
   76     N        3d0      187
   77     N        3d2+     189
   78     O        1s       190 +  191
   79     O        1s       192 +  193
   80     O        1s       194 +  195
   81     O        1s       196 +  197
   82     O        1s       198 +  199
   83     O        2px      200 -  201
   84     O        2pz      204 +  205
   85     O        2px      206 -  207
   86     O        2pz      210 +  211
   87     O        2px      212 -  213
   88     O        2pz      216 +  217
   89     O        2px      218 -  219
   90     O        2pz      222 +  223
   91     O        3d0      228 +  229
   92     O        3d1+     230 -  231
   93     O        3d2+     232 +  233
   94     O        3d0      238 +  239
   95     O        3d1+     240 -  241
   96     O        3d2+     242 +  243
   97     H        1s       244 +  245
   98     H        1s       246 +  247
   99     H        1s       248 +  249
  100     H        2px      250 -  251
  101     H        2pz      254 +  255
  102     H        2px      256 -  257
  103     H        2pz      260 +  261
  104     H        1s       262 +  263
  105     H        1s       264 +  265
  106     H        1s       266 +  267
  107     H        2px      268 -  269
  108     H        2pz      272 +  273
  109     H        2px      274 -  275
  110     H        2pz      278 +  279
  111     H        1s       280
  112     H        1s       281
  113     H        1s       282
  114     H        2pz      285
  115     H        2pz      288


  Symmetry  B1 ( 2)

  116     C        2px        6
  117     C        2px        9
  118     C        2px       12
  119     C        2px       15
  120     C        3d1+      21
  121     C        3d1+      26
  122     C        1s        28 -   29
  123     C        1s        30 -   31
  124     C        1s        32 -   33
  125     C        1s        34 -   35
  126     C        1s        36 -   37
  127     C        2px       38 +   39
  128     C        2pz       42 -   43
  129     C        2px       44 +   45
  130     C        2pz       48 -   49
  131     C        2px       50 +   51
  132     C        2pz       54 -   55
  133     C        2px       56 +   57
  134     C        2pz       60 -   61
  135     C        3d0       66 -   67
  136     C        3d1+      68 +   69
  137     C        3d2+      70 -   71
  138     C        3d0       76 -   77
  139     C        3d1+      78 +   79
  140     C        3d2+      80 -   81
  141     C        1s        82 -   83
  142     C        1s        84 -   85
  143     C        1s        86 -   87
  144     C        1s        88 -   89
  145     C        1s        90 -   91
  146     C        2px       92 +   93
  147     C        2pz       96 -   97
  148     C        2px       98 +   99
  149     C        2pz      102 -  103
  150     C        2px      104 +  105
  151     C        2pz      108 -  109
  152     C        2px      110 +  111
  153     C        2pz      114 -  115
  154     C        3d0      120 -  121
  155     C        3d1+     122 +  123
  156     C        3d2+     124 -  125
  157     C        3d0      130 -  131
  158     C        3d1+     132 +  133
  159     C        3d2+     134 -  135
  160     C        2px      141
  161     C        2px      144
  162     C        2px      147
  163     C        2px      150
  164     C        3d1+     156
  165     C        3d1+     161
  166     N        2px      168
  167     N        2px      171
  168     N        2px      174
  169     N        2px      177
  170     N        3d1+     183
  171     N        3d1+     188
  172     O        1s       190 -  191
  173     O        1s       192 -  193
  174     O        1s       194 -  195
  175     O        1s       196 -  197
  176     O        1s       198 -  199
  177     O        2px      200 +  201
  178     O        2pz      204 -  205
  179     O        2px      206 +  207
  180     O        2pz      210 -  211
  181     O        2px      212 +  213
  182     O        2pz      216 -  217
  183     O        2px      218 +  219
  184     O        2pz      222 -  223
  185     O        3d0      228 -  229
  186     O        3d1+     230 +  231
  187     O        3d2+     232 -  233
  188     O        3d0      238 -  239
  189     O        3d1+     240 +  241
  190     O        3d2+     242 -  243
  191     H        1s       244 -  245
  192     H        1s       246 -  247
  193     H        1s       248 -  249
  194     H        2px      250 +  251
  195     H        2pz      254 -  255
  196     H        2px      256 +  257
  197     H        2pz      260 -  261
  198     H        1s       262 -  263
  199     H        1s       264 -  265
  200     H        1s       266 -  267
  201     H        2px      268 +  269
  202     H        2pz      272 -  273
  203     H        2px      274 +  275
  204     H        2pz      278 -  279
  205     H        2px      283
  206     H        2px      286


  Symmetry  B2 ( 3)

  207     C        2py        7
  208     C        2py       10
  209     C        2py       13
  210     C        2py       16
  211     C        3d1-      19
  212     C        3d1-      24
  213     C        2py       40 +   41
  214     C        2py       46 +   47
  215     C        2py       52 +   53
  216     C        2py       58 +   59
  217     C        3d2-      62 -   63
  218     C        3d1-      64 +   65
  219     C        3d2-      72 -   73
  220     C        3d1-      74 +   75
  221     C        2py       94 +   95
  222     C        2py      100 +  101
  223     C        2py      106 +  107
  224     C        2py      112 +  113
  225     C        3d2-     116 -  117
  226     C        3d1-     118 +  119
  227     C        3d2-     126 -  127
  228     C        3d1-     128 +  129
  229     C        2py      142
  230     C        2py      145
  231     C        2py      148
  232     C        2py      151
  233     C        3d1-     154
  234     C        3d1-     159
  235     N        2py      169
  236     N        2py      172
  237     N        2py      175
  238     N        2py      178
  239     N        3d1-     181
  240     N        3d1-     186
  241     O        2py      202 +  203
  242     O        2py      208 +  209
  243     O        2py      214 +  215
  244     O        2py      220 +  221
  245     O        3d2-     224 -  225
  246     O        3d1-     226 +  227
  247     O        3d2-     234 -  235
  248     O        3d1-     236 +  237
  249     H        2py      252 +  253
  250     H        2py      258 +  259
  251     H        2py      270 +  271
  252     H        2py      276 +  277
  253     H        2py      284
  254     H        2py      287


  Symmetry  A2 ( 4)

  255     C        3d2-      18
  256     C        3d2-      23
  257     C        2py       40 -   41
  258     C        2py       46 -   47
  259     C        2py       52 -   53
  260     C        2py       58 -   59
  261     C        3d2-      62 +   63
  262     C        3d1-      64 -   65
  263     C        3d2-      72 +   73
  264     C        3d1-      74 -   75
  265     C        2py       94 -   95
  266     C        2py      100 -  101
  267     C        2py      106 -  107
  268     C        2py      112 -  113
  269     C        3d2-     116 +  117
  270     C        3d1-     118 -  119
  271     C        3d2-     126 +  127
  272     C        3d1-     128 -  129
  273     C        3d2-     153
  274     C        3d2-     158
  275     N        3d2-     180
  276     N        3d2-     185
  277     O        2py      202 -  203
  278     O        2py      208 -  209
  279     O        2py      214 -  215
  280     O        2py      220 -  221
  281     O        3d2-     224 +  225
  282     O        3d1-     226 -  227
  283     O        3d2-     234 +  235
  284     O        3d1-     236 -  237
  285     H        2py      252 -  253
  286     H        2py      258 -  259
  287     H        2py      270 -  271
  288     H        2py      276 -  277

  Symmetries of electric field:  B1 (2)  B2 (3)  A1 (1)

  Symmetries of magnetic field:  B2 (3)  B1 (2)  A2 (4)


                     .---------------------------------------.
                     | Starting in Integral Section (HERMIT) |
                     `---------------------------------------'



 ***************************************************************************************
 ****************** Output from **INTEGRALS input processing (HERMIT) ******************
 ***************************************************************************************


 - Using defaults, no **INTEGRALS input found

 Default print level:        1

 Calculation of one-electron Hamiltonian integrals.

 Center of mass  (bohr):      0.000000000000      0.000000000000     -0.431033699745
 Operator center (bohr):      0.000000000000      0.000000000000      0.000000000000
 Gauge origin    (bohr):      0.000000000000      0.000000000000      0.000000000000
 Dipole origin   (bohr):      0.000000000000      0.000000000000      0.000000000000


     ************************************************************************
     ************************** Output from HERINT **************************
     ************************************************************************



                      Nuclear contribution to dipole moments
                      --------------------------------------

                 au               Debye          C m (/(10**-30)

      z    -35.30949510       -89.74777879      -299.36636629


  Time used in GABGEN     is       0.11 seconds
  Total CPU  time used in HERMIT:   0.41 seconds
  Total wall time used in HERMIT:   0.41 seconds


                        .----------------------------------.
                        | End of Integral Section (HERMIT) |
                        `----------------------------------'



                   .--------------------------------------------.
                   | Starting in Wave Function Section (SIRIUS) |
                   `--------------------------------------------'


 *** Output from Huckel module :

     Using EWMO model:          F
     Using EHT  model:          T
     Number of Huckel orbitals each symmetry:   24   17    6    3

 Huckel EHT eigenvalues for symmetry :  1
          -20.696084     -15.709144     -11.415812     -11.395641     -11.377433
          -11.362866      -1.766342      -1.554270      -1.195749      -0.942439
           -0.815009      -0.782601      -0.639224      -0.588244      -0.492511
           -0.427568      -0.326568      -0.241649      -0.221586      -0.213330
           -0.205363      -0.177756      -0.166053      -0.159998

 Huckel EHT eigenvalues for symmetry :  2
          -20.700730     -11.396504     -11.377877      -1.407343      -1.200544
           -0.879420      -0.645994      -0.570725      -0.525424      -0.477278
           -0.414632      -0.270967      -0.212864      -0.202735      -0.176168
           -0.165280      -0.162977

 Huckel EHT eigenvalues for symmetry :  3
           -0.806357      -0.668785      -0.466767      -0.382290      -0.280370
           -0.236085

 Huckel EHT eigenvalues for symmetry :  4
           -0.593026      -0.460020      -0.288800

 **********************************************************************
 *SIRIUS* a direct, restricted step, second order MCSCF program       *
 **********************************************************************

 
     Date and time (Linux)  : Sat Feb 22 03:38:39 2020
     Host name              : Lab2-333-NPs                            

 Title lines from ".mol" input file:
      nitrobenzene                                                           
      Generated by the Dalton Input File Plugin for Avogadro                 

 Print level on unit LUPRI =   2 is   0
 Print level on unit LUW4  =   2 is   5

@    MC-SCF optimization.

@    Multi-configurational response calculation.
@              Type: complete active space calculation (CAS).

@    This is a combination run starting with
@              a restricted, closed shell Hartree-Fock calculation
@              an MP2 calculation

 Fock matrices are calculated directly without use of integrals on disk.

 Initial molecular orbitals are obtained according to
 ".MOSTART EHT   " input option

     Wave function specification
     ============================
@    Wave function type        --- MC-SCF ---
@    Number of closed shell electrons          54
@    Number of electrons in active shells      10
@    Total charge of the molecule               0

@    Spin multiplicity and 2 M_S                1         0
@    Total number of symmetries                 4 (point group: C2v)
@    Reference state symmetry                   1 (irrep name : A1 )

     Orbital specifications
     ======================
@    Abelian symmetry species          All |    1    2    3    4
@                                          |  A1   B1   B2   A2 
                                       --- |  ---  ---  ---  ---
@    Inactive orbitals                  27 |   15   10    2    0
@    Active orbitals                     7 |    1    1    2    3
@    Secondary orbitals                254 |   99   80   44   31
@    Total number of orbitals          288 |  115   91   48   34
@    Number of basis functions         288 |  115   91   48   34

      ** Automatic occupation of RHF orbitals **

      -- Initial occupation of symmetries is determined from extended Huckel guess.           
      -- Initial occupation of symmetries is :
@    Occupied SCF orbitals              32 |   16   11    3    2

     Optimization information
     ========================
@    Number of determinants                 115
@    Number of orbital rotations           2762
     ------------------------------------------
@    Total number of variables             2877

     Maximum number of macro iterations      25
     Maximum number of micro iterations     600
     Threshold for MCSCF gradient      1.00D-05
     Number of initial trial vectors          1
     Number of initial CI iterations          3
     Number of simultaneous trial vectors     1

@    This calculation converges to the lowest state for the specified symmetry and spin species.

     Maximum number of NEO/NR iterations  24

    INFORMATION: Switched to "new" integral transformation (from 1988 ;-) )
    because more than 255 basis functions.


 ***********************************************
 ***** DIIS acceleration of SCF iterations *****
 ***********************************************

 C1-DIIS algorithm; max error vectors =    8

 Automatic occupation of symmetries with  64 electrons.

 Iter     Total energy    Error norm  Delta(E)    SCF occupation
 -----------------------------------------------------------------------------
   1  Screening settings (-IFTHRS, JTDIIS, DIFDEN, times)   -8    1    T  2.78D+01  2.78D+01
@  1  -432.208897705       6.56D+00  -4.32D+02    16  11   3   2
      Virial theorem: -V/T =      1.997957
@    MULPOP   C       0.41; C   _1  0.25; C   _2  0.25; C   _1  0.23; C   _2  0.23; C       0.38; N       1.32; O   _1 -1.05; O   _2 -1.05; H   _1 -0.20; 
@             H   _2 -0.20; H   _1 -0.18; H   _2 -0.18; H      -0.19; 
   1  Level shift: doubly occupied orbital energies shifted by -2.00D-01
 -----------------------------------------------------------------------------
   2  Screening settings (-IFTHRS, JTDIIS, DIFDEN, times)   -8    2    T  2.78D+01  2.78D+01
@  2  -433.815376428       3.03D+00  -1.61D+00    16  11   3   2
      Virial theorem: -V/T =      2.001086
@    MULPOP   C       1.00; C   _1  0.31; C   _2  0.31; C   _1  0.34; C   _2  0.34; C       0.34; N       0.39; O   _1 -0.53; O   _2 -0.53; H   _1 -0.40; 
@             H   _2 -0.40; H   _1 -0.39; H   _2 -0.39; H      -0.40; 
   2  Level shift: doubly occupied orbital energies shifted by -1.00D-01
 -----------------------------------------------------------------------------
   3  Screening settings (-IFTHRS, JTDIIS, DIFDEN, times)   -8    3    T  2.77D+01  2.77D+01
@  3  -434.207137712       7.07D-01  -3.92D-01    16  11   3   2
      Virial theorem: -V/T =      2.000478
@    MULPOP   C       1.77; C   _1  0.23; C   _2  0.23; C   _1  0.40; C   _2  0.40; C       0.28; N       0.71; O   _1 -0.91; O   _2 -0.91; H   _1 -0.45; 
@             H   _2 -0.45; H   _1 -0.44; H   _2 -0.44; H      -0.44; 
   3  Level shift: doubly occupied orbital energies shifted by -2.50D-02
 -----------------------------------------------------------------------------
   4  Screening settings (-IFTHRS, JTDIIS, DIFDEN, times)   -8    4    T  2.75D+01  2.75D+01
@  4  -434.232174539       1.86D-01  -2.50D-02    16  11   3   2
      Virial theorem: -V/T =      2.002264
@    MULPOP   C       1.88; C   _1  0.15; C   _2  0.15; C   _1  0.50; C   _2  0.50; C       0.28; N       0.57; O   _1 -0.88; O   _2 -0.88; H   _1 -0.45; 
@             H   _2 -0.45; H   _1 -0.45; H   _2 -0.45; H      -0.46; 
   4  Level shift: doubly occupied orbital energies shifted by -1.25D-02
 -----------------------------------------------------------------------------
   5  Screening settings (-IFTHRS, JTDIIS, DIFDEN, times)  -10    5    F  2.80D+01  2.80D+01
@  5  -434.234830314       5.62D-02  -2.66D-03    16  11   3   2
      Virial theorem: -V/T =      2.001703
@    MULPOP   C       1.90; C   _1  0.14; C   _2  0.14; C   _1  0.49; C   _2  0.49; C       0.26; N       0.56; O   _1 -0.88; O   _2 -0.88; H   _1 -0.44; 
@             H   _2 -0.44; H   _1 -0.44; H   _2 -0.44; H      -0.44; 
 -----------------------------------------------------------------------------
   6  Screening settings (-IFTHRS, JTDIIS, DIFDEN, times)  -10    6    T  2.78D+01  2.78D+01
@  6  -434.235168923       1.59D-02  -3.39D-04    16  11   3   2
      Virial theorem: -V/T =      2.001616
@    MULPOP   C       1.92; C   _1  0.13; C   _2  0.13; C   _1  0.50; C   _2  0.50; C       0.26; N       0.54; O   _1 -0.88; O   _2 -0.88; H   _1 -0.44; 
@             H   _2 -0.44; H   _1 -0.44; H   _2 -0.44; H      -0.44; 
 -----------------------------------------------------------------------------
   7  Screening settings (-IFTHRS, JTDIIS, DIFDEN, times)  -13    7    F  2.82D+01  2.82D+01
@  7  -434.235203621       6.47D-03  -3.47D-05    16  11   3   2
      Virial theorem: -V/T =      2.001655
@    MULPOP   C       1.92; C   _1  0.12; C   _2  0.12; C   _1  0.49; C   _2  0.49; C       0.26; N       0.54; O   _1 -0.88; O   _2 -0.88; H   _1 -0.44; 
@             H   _2 -0.44; H   _1 -0.44; H   _2 -0.44; H      -0.44; 
 -----------------------------------------------------------------------------
   8  Screening settings (-IFTHRS, JTDIIS, DIFDEN, times)  -13    8    T  2.80D+01  2.80D+01
@  8  -434.235209162       2.14D-03  -5.54D-06    16  11   3   2
      Virial theorem: -V/T =      2.001643
@    MULPOP   C       1.93; C   _1  0.12; C   _2  0.12; C   _1  0.49; C   _2  0.49; C       0.26; N       0.54; O   _1 -0.88; O   _2 -0.88; H   _1 -0.44; 
@             H   _2 -0.44; H   _1 -0.44; H   _2 -0.44; H      -0.44; 
 -----------------------------------------------------------------------------
   9  Screening settings (-IFTHRS, JTDIIS, DIFDEN, times)  -13    9    T  2.80D+01  2.80D+01
@  9  -434.235209747       6.63D-04  -5.85D-07    16  11   3   2
      Virial theorem: -V/T =      2.001639
@    MULPOP   C       1.93; C   _1  0.12; C   _2  0.12; C   _1  0.49; C   _2  0.49; C       0.26; N       0.54; O   _1 -0.88; O   _2 -0.88; H   _1 -0.44; 
@             H   _2 -0.44; H   _1 -0.44; H   _2 -0.44; H      -0.44; 
 -----------------------------------------------------------------------------
  10  Screening settings (-IFTHRS, JTDIIS, DIFDEN, times)  -13   10    T  2.80D+01  2.80D+01
@ 10  -434.235209799       2.06D-04  -5.18D-08    16  11   3   2
      Virial theorem: -V/T =      2.001641
@    MULPOP   C       1.93; C   _1  0.12; C   _2  0.12; C   _1  0.49; C   _2  0.49; C       0.26; N       0.54; O   _1 -0.88; O   _2 -0.88; H   _1 -0.44; 
@             H   _2 -0.44; H   _1 -0.44; H   _2 -0.44; H      -0.44; 
 -----------------------------------------------------------------------------
  11  Screening settings (-IFTHRS, JTDIIS, DIFDEN, times)  -13   11    T  2.80D+01  2.80D+01
@ 11  -434.235209807       7.91D-05  -7.35D-09    16  11   3   2
      Virial theorem: -V/T =      2.001641
@    MULPOP   C       1.93; C   _1  0.12; C   _2  0.12; C   _1  0.49; C   _2  0.49; C       0.26; N       0.54; O   _1 -0.88; O   _2 -0.88; H   _1 -0.44; 
@             H   _2 -0.44; H   _1 -0.44; H   _2 -0.44; H      -0.44; 
 -----------------------------------------------------------------------------
  12  Screening settings (-IFTHRS, JTDIIS, DIFDEN, times)  -13   12    T  2.79D+01  2.79D+01
@ 12  -434.235209808       3.20D-05  -1.30D-09    16  11   3   2
      Virial theorem: -V/T =      2.001641
@    MULPOP   C       1.93; C   _1  0.12; C   _2  0.12; C   _1  0.49; C   _2  0.49; C       0.26; N       0.54; O   _1 -0.88; O   _2 -0.88; H   _1 -0.44; 
@             H   _2 -0.44; H   _1 -0.44; H   _2 -0.44; H      -0.44; 
 -----------------------------------------------------------------------------
  13  Screening settings (-IFTHRS, JTDIIS, DIFDEN, times)  -13   13    T  2.78D+01  2.78D+01
@ 13  -434.235209808       1.93D-05  -2.08D-10    16  11   3   2
      Virial theorem: -V/T =      2.001641
@    MULPOP   C       1.93; C   _1  0.12; C   _2  0.12; C   _1  0.49; C   _2  0.49; C       0.26; N       0.54; O   _1 -0.88; O   _2 -0.88; H   _1 -0.44; 
@             H   _2 -0.44; H   _1 -0.44; H   _2 -0.44; H      -0.44; 
 -----------------------------------------------------------------------------
  14  Screening settings (-IFTHRS, JTDIIS, DIFDEN, times)  -13   14    T  2.83D+01  2.83D+01
@ 14  -434.235209808       6.33D-06  -1.02D-10    16  11   3   2
      Virial theorem: -V/T =      2.001641
@    MULPOP   C       1.93; C   _1  0.12; C   _2  0.12; C   _1  0.49; C   _2  0.49; C       0.26; N       0.54; O   _1 -0.88; O   _2 -0.88; H   _1 -0.44; 
@             H   _2 -0.44; H   _1 -0.44; H   _2 -0.44; H      -0.44; 
 -----------------------------------------------------------------------------
  15  Screening settings (-IFTHRS, JTDIIS, DIFDEN, times)  -13   15    T  2.77D+01  2.77D+01
@ 15  -434.235209808       2.25D-06  -2.31D-11    16  11   3   2
      Virial theorem: -V/T =      2.001641
@    MULPOP   C       1.93; C   _1  0.12; C   _2  0.12; C   _1  0.49; C   _2  0.49; C       0.26; N       0.54; O   _1 -0.88; O   _2 -0.88; H   _1 -0.44; 
@             H   _2 -0.44; H   _1 -0.44; H   _2 -0.44; H      -0.44; 
 -----------------------------------------------------------------------------
  16  Screening settings (-IFTHRS, JTDIIS, DIFDEN, times)  -13   16    T  2.77D+01  2.77D+01
@ 16  -434.235209808       1.03D-06  -2.96D-12    16  11   3   2
      Virial theorem: -V/T =      2.001641
@    MULPOP   C       1.93; C   _1  0.12; C   _2  0.12; C   _1  0.49; C   _2  0.49; C       0.26; N       0.54; O   _1 -0.88; O   _2 -0.88; H   _1 -0.44; 
@             H   _2 -0.44; H   _1 -0.44; H   _2 -0.44; H      -0.44; 
 -----------------------------------------------------------------------------
  17  Screening settings (-IFTHRS, JTDIIS, DIFDEN, times)  -13   17    T  2.76D+01  2.76D+01
@ 17  -434.235209808       4.92D-07   7.16D-12    16  11   3   2

@ *** DIIS converged in  17 iterations !
@     Converged SCF energy, gradient:   -434.235209808191    4.92D-07
    - total time used in SIRFCK :              0.00 seconds

 --- Writing SIRIFC interface file

 CPU and wall time for SCF :     474.203     474.260


 ----- Output from SIRIUS MP2 module -----

 Reference: H.J.Aa.Jensen, P.Jorgensen, H.Agren, and J.Olsen,
            J. Chem. Phys. 88, 3834 (1988); 89, 5354 (1988)

 Checking that the closed shell orbitals are canonical Hartree-Fock orbitals

    Number of electrons  :   64
    Closed shell orbitals:   16   11    3    2

 Generating Fock matrix

 Hartree-Fock electronic energy:        -849.746990271173
 Hartree-Fock total      energy:        -434.235209808180

 Hartree-Fock orbital energies, symmetry 1 ( A1 ),   16 occupied SCF orbitals

       -20.61097272   -15.85958125   -11.31291453   -11.28425396   -11.28309616
       -11.27361768    -1.61538439    -1.20696096    -1.10799292    -0.97019024
        -0.83150611    -0.78585898    -0.71028027    -0.65187471    -0.55528048
        -0.50204721     0.02650196     0.04402772     0.06211767     0.10453680
         0.13162687     0.13467759     0.15053618     0.15680742     0.17318662
         0.18057471     0.21566234     0.25923001     0.28803498     0.30490672
         0.31200806     0.34118591     0.35171452     0.36490053     0.37362720
         0.39817369     0.41230087     0.44247905     0.46933229     0.48767226
         0.51861570     0.56051203     0.58236755     0.58718401     0.63140131
         0.65480429     0.65999742     0.67955203     0.73063652     0.73626705
         0.74567421     0.83814323     0.88578829     0.93234613     0.96131133
         0.96530441     1.00860438     1.05815762     1.08887971     1.14178003
         1.27997198     1.36346496     1.38065382     1.44710351     1.49872380
         1.51466155     1.55560870     1.57165658     1.59985994     1.61089708
         1.68404216     1.72826089     1.74241578     1.76315915     1.87796364
         1.93864024     1.95978802     2.01200223     2.01865457     2.13686869
         2.16761844     2.23316292     2.31928645     2.37049246     2.44432319
         2.45750637     2.56334542     2.73760507     2.78785688     2.84014616
         2.89319396     2.97377259     3.04046352     3.16742386     3.27602345
         3.44179558     3.76825655     3.98666527     4.09250491     4.25185785
        19.81298331    20.34727440    20.46807307    20.62295912    23.35629153
        23.42927982    23.48583415    23.83390296    23.94194441    24.13905292
        27.11115233    31.29960853    35.82418526    39.73403021    39.85373230

 Hartree-Fock orbital energies, symmetry 2 ( B1 ),   11 occupied SCF orbitals

       -20.61102402   -11.28429677   -11.27370364    -1.40556906    -1.05590888
        -0.86897249    -0.73272966    -0.65714011    -0.62668193    -0.53219574
        -0.49298843     0.03601131     0.05992047     0.13029254     0.13303255
         0.15333588     0.17413166     0.18388641     0.21510970     0.26173277
         0.28929762     0.31370711     0.33329727     0.36401312     0.36944643
         0.39433488     0.42220663     0.43908327     0.47380177     0.57052929
         0.57946919     0.59392209     0.64980456     0.67097135     0.68146511
         0.70072782     0.75304086     0.76116793     0.82908447     0.84289686
         0.87004119     0.93656455     1.01529569     1.14217846     1.21068917
         1.25441519     1.30892462     1.41583778     1.42814468     1.48644973
         1.57403205     1.59375714     1.61482652     1.63809354     1.71498957
         1.76220266     1.77152315     1.79612866     1.89517570     1.92686673
         2.00485922     2.09668058     2.23826905     2.26604286     2.33878112
         2.35034665     2.39021883     2.53478528     2.59194660     2.73935954
         2.89859925     2.93433996     3.12172275     3.29027781     3.34278575
         3.41268814     3.76179558     3.86737091     4.24086608    20.30777768
        20.48670138    22.92438222    23.34646690    23.39988123    23.93938854
        24.12328676    24.31195457    31.44947754    35.57001213    39.65202686
        40.04634936

 Hartree-Fock orbital energies, symmetry 3 ( B2 ),    3 occupied SCF orbitals

        -0.72550263    -0.53604835    -0.37801257     0.02824056     0.10685566
         0.12787911     0.13911810     0.18311950     0.19579507     0.24732146
         0.31954712     0.34490695     0.37305356     0.44606234     0.53453029
         0.58830604     0.64269059     0.71668447     0.78264906     0.83903138
         0.87565158     0.92570260     0.92744245     0.98986870     1.14830162
         1.28539904     1.30818072     1.47131970     1.48860303     1.62210309
         1.67518980     1.71052306     1.85209060     1.90150225     1.98032632
         2.08253965     2.17963565     2.29541046     2.53500278     2.70019207
         3.67534970     3.78437244    22.54841118    22.69967991    22.83435122
        23.02812759    30.58173002    39.42785569

 Hartree-Fock orbital energies, symmetry 4 ( A2 ),    2 occupied SCF orbitals

        -0.45632615    -0.36951362     0.08619655     0.13136401     0.18574623
         0.29950867     0.41341738     0.49075670     0.54887691     0.66304459
         0.73614908     0.89446798     0.90262201     0.94581708     1.03438096
         1.09731877     1.21484047     1.25278514     1.34406051     1.48947102
         1.66648965     1.68843397     1.85648733     2.00437338     2.11399054
         2.22247591     2.36010702     2.47505461     2.61348217     3.67269257
         4.00635139    22.69250972    22.85973785    39.50273474

    E(LUMO) :     0.02650196   (in symmetry 1)
  - E(HOMO) :    -0.36951362   (in symmetry 4)
  --------------------------
    gap     :     0.39601558

---> (Re)generating AOTWOINT


     ************************************************************************
     ************************** Output from HERINT **************************
     ************************************************************************


 Threshold for neglecting two-electron integrals:  1.00D-12
 HERMIT - Number of two-electron integrals written:   204185537 ( 23.6% )
 HERMIT - Megabytes written:                           3116.929

  Time used in TWOINT     is      39.08 seconds

 2-el. integral transformation level 5: Total CPU and WALL times (sec)     409.422     411.204

 MP2 move   0.989300 electrons to unoccupied HF orbitals


@   Hartree-Fock total energy   :          -434.2352098082
@   + MP2 contribution          :            -1.7242682881
@   = MP2 second order energy   :          -435.9594780963

 Natural orbital occupation numbers, symmetry 1 (irrep A1 )
 Sum =    32.00705362; RHF =    32.00000000; Difference =     0.00705362

         1.99928969     1.99907421     1.99876132     1.99875551     1.99875105
         1.99874449     1.98700856     1.98412894     1.97962349     1.97282310
         1.96908587     1.96857665     1.96537487     1.96220453     1.95521658
         1.94766253     0.04246525     0.03268124     0.02565207     0.02369646
         0.01917185     0.01866405     0.01711518     0.01650542     0.01379112
         0.01267639     0.01164937     0.00981782     0.00851027     0.00790470
         0.00742307     0.00663917     0.00566156     0.00446329     0.00308694
         0.00294335     0.00269076     0.00259845     0.00218587     0.00196362
         0.00185763     0.00166965     0.00156781     0.00130443     0.00119257
         0.00116175     0.00105974     0.00095880     0.00071596     0.00065023
         0.00061189     0.00053684     0.00049868     0.00046283     0.00043928
         0.00041632     0.00039919     0.00038772     0.00037706     0.00035111
         0.00034082     0.00032203     0.00031209     0.00028868     0.00026601
         0.00025787     0.00022665     0.00021172     0.00020069     0.00019521
         0.00018594     0.00018402     0.00017487     0.00016879     0.00016840
         0.00016148     0.00015558     0.00014923     0.00014099     0.00013273
         0.00012469     0.00012315     0.00012152     0.00011073     0.00010511
         0.00009347     0.00007703     0.00007097     0.00005689     0.00005466
         0.00005051     0.00003958     0.00003366     0.00002716     0.00002031
         0.00001799     0.00001457     0.00001226     0.00001092     0.00000933
         0.00000872     0.00000825     0.00000673     0.00000306     0.00000273
         0.00000190     0.00000099     0.00000055     0.00000035     0.00000018
         0.00000016     0.00000000    -0.00000010    -0.00000051    -0.00005586

 Natural orbital occupation numbers, symmetry 2 (irrep B1 )
 Sum =    21.95435971; RHF =    22.00000000; Difference =    -0.04564029

         1.99928956     1.99875701     1.99875062     1.98418738     1.98001776
         1.97277227     1.96289021     1.96069151     1.95483840     1.95437270
         1.94655272     0.03838702     0.02541898     0.02365932     0.01906893
         0.01660671     0.01596277     0.01508669     0.01120151     0.01048764
         0.00912680     0.00769341     0.00572449     0.00539550     0.00510805
         0.00398588     0.00312651     0.00272620     0.00241148     0.00212535
         0.00174440     0.00162066     0.00151789     0.00131695     0.00116811
         0.00101748     0.00096258     0.00069166     0.00064183     0.00056750
         0.00049296     0.00043982     0.00042343     0.00037452     0.00035138
         0.00034048     0.00030399     0.00029207     0.00027006     0.00026063
         0.00023646     0.00021135     0.00019892     0.00018804     0.00018271
         0.00017793     0.00017048     0.00016921     0.00015999     0.00015460
         0.00014358     0.00013378     0.00012836     0.00012582     0.00011871
         0.00011118     0.00009537     0.00008925     0.00006723     0.00005577
         0.00004544     0.00003711     0.00003062     0.00002800     0.00002358
         0.00001500     0.00001439     0.00001140     0.00001054     0.00000860
         0.00000468     0.00000346     0.00000180     0.00000123     0.00000057
         0.00000026     0.00000014    -0.00000004    -0.00000023    -0.00000068
        -0.00001667

 Natural orbital occupation numbers, symmetry 3 (irrep B2 )
 Sum =     6.07721513; RHF =     6.00000000; Difference =     0.07721513

         1.95115354     1.94412640     1.90916559     0.10234494     0.06624780
         0.02950841     0.01037468     0.01019244     0.00869355     0.00798264
         0.00617537     0.00528803     0.00452231     0.00386678     0.00341353
         0.00305110     0.00149251     0.00142594     0.00099988     0.00088816
         0.00085786     0.00065907     0.00061254     0.00049580     0.00047349
         0.00041533     0.00033218     0.00029037     0.00025155     0.00023155
         0.00019724     0.00019534     0.00018974     0.00017667     0.00015369
         0.00012973     0.00012196     0.00011121     0.00010323     0.00008373
         0.00008003     0.00006103     0.00003486     0.00001956     0.00001039
         0.00000713     0.00000497     0.00000125

 Natural orbital occupation numbers, symmetry 4 (irrep A2 )
 Sum =     3.96137154; RHF =     4.00000000; Difference =    -0.03862846

         1.91695076     1.90833457     0.06624446     0.01476229     0.01038879
         0.00927126     0.00794797     0.00571017     0.00513936     0.00404596
         0.00354959     0.00155090     0.00120444     0.00093155     0.00077893
         0.00072863     0.00067211     0.00056267     0.00040735     0.00036987
         0.00034203     0.00029723     0.00021241     0.00019697     0.00016127
         0.00013261     0.00011655     0.00010383     0.00009342     0.00006927
         0.00005119     0.00002049     0.00001744     0.00000520

 Time used for MP2 natural orbitals :     441.000 CPU seconds,     442.795 wall seconds.

 CPU and wall time for MP2 :     441.000     442.796


        SIRIUS MCSCF optimization (SIROPT)
 ================================================


 Fock matrix screening setting for SIRCNO: IFTHRS =    9


 ----- Output from SIRIUS CI module (CICTL) -----




 2-el. integral transformation level 0: Total CPU and WALL times (sec)     100.438     100.439


 --- SIRCI.CIST1: plus combination of all degenerate
                 configurations is used as start vectors.


 (CIST1) 8 lowest diagonal elements:

 Element no. Config.no.    Active energy      Total energy

         1 :         67    -17.3755957689   -434.2170288311
         2 :         69    -17.0841355262   -433.9255685884
         3 :         81    -17.0841355262   -433.9255685884
         4 :         68    -17.0434840307   -433.8849170929
         5 :         74    -17.0434840307   -433.8849170929
         6 :         78    -16.9197385978   -433.7611716600
         7 :         96    -16.9197385978   -433.7611716600
         8 :         71    -16.8829875127   -433.7244205749


 Convergence threshold for CI optimization :     0.00000500



 *** Reached maximum number of CI iterations:    3
              1 CI roots are not converged.


@ Final CI energies and residuals in symmetry 1 (irrep A1 )
@    1     -434.265226247541307       4.84D-03

   --- OUTPUT FROM SIRCNO     Keyword = FD+NO 


 Occupations of CAS natural orbitals:

 Symmetry  1 ( irrep A1  in C2v )

   1.999854711

 Symmetry  2 ( irrep B1  in C2v )

   1.999853526

 Symmetry  3 ( irrep B2  in C2v )

   1.988630894   0.086695766

 Symmetry  4 ( irrep A2  in C2v )

   1.917396668   1.968211486   0.039356950


 --- MACRO ITERATION  1 ---
 --------------------------

 2-el. integral transformation level 3: Total CPU and WALL times (sec)     102.609     102.640

 Fock matrix screening setting for this macro iteration: 10^( -9)

 Total MCSCF energy       :          -434.265226246739132  (MACRO    1)

 - Nuclear repulsion      :           415.511780462992704
 - Inactive energy        :          -832.353213524568446
 - Active energy          :           -17.423793185163376

 Norm of total gradient   :             0.515706720122
 -    of CI gradient      :             0.009676389561
 -    of orbital gradient :             0.515615931352
      Virial theorem: -V/T =      2.000548
@    MULPOP   C       1.57; C   _1  0.26; C   _2  0.26; C   _1  0.47; C   _2  0.47; C       0.32; N       0.39; O   _1 -0.68; O   _2 -0.68; H   _1 -0.49; 
@             H   _2 -0.49; H   _1 -0.47; H   _2 -0.47; H      -0.47; 

 Residual norm when dim(red L) =   7
 NEO root     CSF        orbital          total
    1     0.04392632     0.02554050     0.05081180 converged

 (NEONEX) NEO vector is converged.

   --- OUTPUT FROM SIRCNO     Keyword = FD+NO 


 Occupations of CAS natural orbitals:

 Symmetry  1 ( irrep A1  in C2v )

   1.999870587

 Symmetry  2 ( irrep B1  in C2v )

   1.999641455

 Symmetry  3 ( irrep B2  in C2v )

   1.987151222   0.200896914

 Symmetry  4 ( irrep A2  in C2v )

   1.800304264   1.954833151   0.057302407


 --- MACRO ITERATION  2 ---
 --------------------------

 2-el. integral transformation level 3: Total CPU and WALL times (sec)     102.672     102.679

 Fock matrix screening setting for this macro iteration: 10^( -9)

 Total MCSCF energy       :          -434.275747537438008  (MACRO    2)

 - Nuclear repulsion      :           415.511780462992704
 - Inactive energy        :          -832.643522020370369
 - Active energy          :           -17.144005980060353

 Norm of total gradient   :             0.156476271154
 -    of CI gradient      :             0.123319580415
 -    of orbital gradient :             0.096317726927
      Virial theorem: -V/T =      2.001333
@    MULPOP   C       1.99; C   _1  0.11; C   _2  0.11; C   _1  0.47; C   _2  0.47; C       0.27; N       0.39; O   _1 -0.79; O   _2 -0.79; H   _1 -0.45; 
@             H   _2 -0.45; H   _1 -0.44; H   _2 -0.44; H      -0.44; 

 (SIRNEO) iteration (  2,  7)
 Micro iteration termination criterion met, EVAL(ISTATE+1) = -4.85D-04

   --- OUTPUT FROM SIRCNO     Keyword = FD+NO 


 Occupations of CAS natural orbitals:

 Symmetry  1 ( irrep A1  in C2v )

   1.999796368

 Symmetry  2 ( irrep B1  in C2v )

   1.997753419

 Symmetry  3 ( irrep B2  in C2v )

   1.989086638   0.146227756

 Symmetry  4 ( irrep A2  in C2v )

   1.856828152   1.964222299   0.046085367


 --- MACRO ITERATION  3 ---
 --------------------------

 2-el. integral transformation level 3: Total CPU and WALL times (sec)     102.641     102.701

 Fock matrix screening setting for this macro iteration: 10^( -9)

 Total MCSCF energy       :          -434.286424479886080  (MACRO    3)

 - Nuclear repulsion      :           415.511780462992704
 - Inactive energy        :          -832.707905120664464
 - Active energy          :           -17.090299822214345

 Norm of total gradient   :             0.047340297131
 -    of CI gradient      :             0.040152976438
 -    of orbital gradient :             0.025076726572
      Virial theorem: -V/T =      2.001358
@    MULPOP   C       1.98; C   _1  0.11; C   _2  0.11; C   _1  0.47; C   _2  0.47; C       0.26; N       0.44; O   _1 -0.81; O   _2 -0.81; H   _1 -0.45; 
@             H   _2 -0.45; H   _1 -0.44; H   _2 -0.44; H      -0.45; 

 (SIRNEO) iteration (  3, 12)
 Micro iteration termination criterion met, EVAL(ISTATE+1) = -2.19D-05

   --- OUTPUT FROM SIRCNO     Keyword = FD+NO 


 Occupations of CAS natural orbitals:

 Symmetry  1 ( irrep A1  in C2v )

   1.999628761

 Symmetry  2 ( irrep B1  in C2v )

   1.999544930

 Symmetry  3 ( irrep B2  in C2v )

   1.988942245   0.128709626

 Symmetry  4 ( irrep A2  in C2v )

   1.873004860   1.964139718   0.046029859


 --- MACRO ITERATION  4 ---
 --------------------------

 2-el. integral transformation level 3: Total CPU and WALL times (sec)     102.484     102.490

 Fock matrix screening setting for this macro iteration: 10^( -9)

 Total MCSCF energy       :          -434.287287234977271  (MACRO    4)

 - Nuclear repulsion      :           415.511780462992704
 - Inactive energy        :          -831.810010258676130
 - Active energy          :           -17.989057439293866

 Norm of total gradient   :             0.015070823457
 -    of CI gradient      :             0.014054801260
 -    of orbital gradient :             0.005439878789
      Virial theorem: -V/T =      2.001361
@    MULPOP   C       1.97; C   _1  0.11; C   _2  0.11; C   _1  0.47; C   _2  0.47; C       0.27; N       0.44; O   _1 -0.81; O   _2 -0.81; H   _1 -0.45; 
@             H   _2 -0.45; H   _1 -0.44; H   _2 -0.44; H      -0.45; 

 (SIRNEO) iteration (  4,  5)
 Micro iteration termination criterion met, EVAL(ISTATE+1) = -2.70D-05

   --- OUTPUT FROM SIRCNO     Keyword = FD+NO 


 Occupations of CAS natural orbitals:

 Symmetry  1 ( irrep A1  in C2v )

   1.999754388

 Symmetry  2 ( irrep B1  in C2v )

   1.999136207

 Symmetry  3 ( irrep B2  in C2v )

   1.989076195   0.126013138

 Symmetry  4 ( irrep A2  in C2v )

   1.876022773   1.964321424   0.045675874


 --- MACRO ITERATION  5 ---
 --------------------------

 2-el. integral transformation level 3: Total CPU and WALL times (sec)     101.609     101.597

 Fock matrix screening setting for this macro iteration: 10^( -9)

 Total MCSCF energy       :          -434.287483601510985  (MACRO    5)

 - Nuclear repulsion      :           415.511780462992704
 - Inactive energy        :          -831.026841526095723
 - Active energy          :           -18.772422538407980

 Norm of total gradient   :             0.021253733513
 -    of CI gradient      :             0.013006644805
 -    of orbital gradient :             0.016809175445
      Virial theorem: -V/T =      2.001338
@    MULPOP   C       1.98; C   _1  0.11; C   _2  0.11; C   _1  0.47; C   _2  0.47; C       0.27; N       0.45; O   _1 -0.81; O   _2 -0.81; H   _1 -0.45; 
@             H   _2 -0.45; H   _1 -0.44; H   _2 -0.44; H      -0.45; 

 Residual norm when dim(red L) =  11
 NEO root     CSF        orbital          total
    1     0.00232392     0.00112459     0.00258172 converged

 (NEONEX) NEO vector is converged.

   --- OUTPUT FROM SIRCNO     Keyword = FD+NO 


 Occupations of CAS natural orbitals:

 Symmetry  1 ( irrep A1  in C2v )

   1.999117793

 Symmetry  2 ( irrep B1  in C2v )

   1.999198092

 Symmetry  3 ( irrep B2  in C2v )

   1.988987429   0.127507486

 Symmetry  4 ( irrep A2  in C2v )

   1.875137452   1.963873693   0.046178056


 --- MACRO ITERATION  6 ---
 --------------------------

 2-el. integral transformation level 3: Total CPU and WALL times (sec)     102.812     102.816

 Fock matrix screening setting for this macro iteration: 10^( -9)

 Total MCSCF energy       :          -434.287937043424677  (MACRO    6)

 - Nuclear repulsion      :           415.511780462992704
 - Inactive energy        :          -831.616122523683998
 - Active energy          :           -18.183594982733403

 Norm of total gradient   :             0.009258535079
 -    of CI gradient      :             0.008604423842
 -    of orbital gradient :             0.003418239628
      Virial theorem: -V/T =      2.001366
@    MULPOP   C       1.97; C   _1  0.11; C   _2  0.11; C   _1  0.47; C   _2  0.47; C       0.27; N       0.45; O   _1 -0.81; O   _2 -0.81; H   _1 -0.45; 
@             H   _2 -0.45; H   _1 -0.44; H   _2 -0.44; H      -0.45; 

 Residual norm when dim(red L) =  12
 NEO root     CSF        orbital          total
    1     0.00112091     0.00078850     0.00137046 converged

 (NEONEX) NEO vector is converged.

   --- OUTPUT FROM SIRCNO     Keyword = FD+NO 


 Occupations of CAS natural orbitals:

 Symmetry  1 ( irrep A1  in C2v )

   1.998421092

 Symmetry  2 ( irrep B1  in C2v )

   1.999529191

 Symmetry  3 ( irrep B2  in C2v )

   1.989030332   0.125951539

 Symmetry  4 ( irrep A2  in C2v )

   1.877030984   1.964108669   0.045928193


 --- MACRO ITERATION  7 ---
 --------------------------

 2-el. integral transformation level 3: Total CPU and WALL times (sec)     101.750     101.775

 Fock matrix screening setting for this macro iteration: 10^( -9)

 Total MCSCF energy       :          -434.288008102419838  (MACRO    7)

 - Nuclear repulsion      :           415.511780462992704
 - Inactive energy        :          -831.709368586344226
 - Active energy          :           -18.090419979068315

 Norm of total gradient   :             0.007758310643
 -    of CI gradient      :             0.007621376092
 -    of orbital gradient :             0.001451210012
      Virial theorem: -V/T =      2.001364
@    MULPOP   C       1.98; C   _1  0.11; C   _2  0.11; C   _1  0.47; C   _2  0.47; C       0.27; N       0.45; O   _1 -0.81; O   _2 -0.81; H   _1 -0.45; 
@             H   _2 -0.45; H   _1 -0.44; H   _2 -0.44; H      -0.45; 

 Residual norm when dim(red L) =   9
 NEO root     CSF        orbital          total
    1     0.00057857     0.00029487     0.00064938 converged

 (NEONEX) NEO vector is converged.

   --- OUTPUT FROM SIRCNO     Keyword = FD+NO 


 Occupations of CAS natural orbitals:

 Symmetry  1 ( irrep A1  in C2v )

   1.998658449

 Symmetry  2 ( irrep B1  in C2v )

   1.999491440

 Symmetry  3 ( irrep B2  in C2v )

   1.989041213   0.125641829

 Symmetry  4 ( irrep A2  in C2v )

   1.877141780   1.964138571   0.045886718


 --- MACRO ITERATION  8 ---
 --------------------------

 2-el. integral transformation level 3: Total CPU and WALL times (sec)     101.984     102.023

 Fock matrix screening setting for this macro iteration: 10^( -9)

 Total MCSCF energy       :          -434.288041867548429  (MACRO    8)

 - Nuclear repulsion      :           415.511780462992704
 - Inactive energy        :          -831.670666596609976
 - Active energy          :           -18.129155733931150

 Norm of total gradient   :             0.001350264642
 -    of CI gradient      :             0.001309969223
 -    of orbital gradient :             0.000327406839
      Virial theorem: -V/T =      2.001366
@    MULPOP   C       1.98; C   _1  0.11; C   _2  0.11; C   _1  0.47; C   _2  0.47; C       0.27; N       0.45; O   _1 -0.81; O   _2 -0.81; H   _1 -0.45; 
@             H   _2 -0.45; H   _1 -0.44; H   _2 -0.44; H      -0.45; 

 Residual norm when dim(red L) =  23
 NEO root     CSF        orbital          total
    1     0.00000432     0.00000425     0.00000606 converged

 (NEONEX) NEO vector is converged.

   --- OUTPUT FROM SIRCNO     Keyword = FD+NO 


 Occupations of CAS natural orbitals:

 Symmetry  1 ( irrep A1  in C2v )

   1.998706803

 Symmetry  2 ( irrep B1  in C2v )

   1.999483138

 Symmetry  3 ( irrep B2  in C2v )

   1.989024592   0.125991359

 Symmetry  4 ( irrep A2  in C2v )

   1.876756378   1.964078847   0.045958885


 --- MACRO ITERATION  9 ---
 --------------------------

 2-el. integral transformation level 3: Total CPU and WALL times (sec)     102.734     102.739

 Fock matrix screening setting for this macro iteration: 10^( -9)

 Total MCSCF energy       :          -434.288042494917022  (MACRO    9)

 - Nuclear repulsion      :           415.511780462992704
 - Inactive energy        :          -831.677609440134802
 - Active energy          :           -18.122213517774952

 Norm of total gradient   :             0.000011620685
 -    of CI gradient      :             0.000010314173
 -    of orbital gradient :             0.000005353330
      Virial theorem: -V/T =      2.001365
@    MULPOP   C       1.98; C   _1  0.11; C   _2  0.11; C   _1  0.47; C   _2  0.47; C       0.27; N       0.45; O   _1 -0.81; O   _2 -0.81; H   _1 -0.45; 
@             H   _2 -0.45; H   _1 -0.44; H   _2 -0.44; H      -0.45; 

 Residual norm when dim(red L) =   5
 NEO root     CSF        orbital          total
    1     0.00000491     0.00000329     0.00000591 converged

 (NEONEX) NEO vector is converged.

   --- OUTPUT FROM SIRCNO     Keyword = FD+NO 


 Occupations of CAS natural orbitals:

 Symmetry  1 ( irrep A1  in C2v )

   1.998707159

 Symmetry  2 ( irrep B1  in C2v )

   1.999483190

 Symmetry  3 ( irrep B2  in C2v )

   1.989024654   0.125989253

 Symmetry  4 ( irrep A2  in C2v )

   1.876758033   1.964078411   0.045959300


 --- MACRO ITERATION 10 ---
 --------------------------

 2-el. integral transformation level 3: Total CPU and WALL times (sec)     102.703     102.693

 Fock matrix screening setting for this macro iteration: 10^( -9)

 Total MCSCF energy       :          -434.288042495108982  (MACRO   10)

 - Nuclear repulsion      :           415.511780462992704
 - Inactive energy        :          -831.677322823670011
 - Active energy          :           -18.122500134431693

 Norm of total gradient   :             0.000005910530
 -    of CI gradient      :             0.000004913609
 -    of orbital gradient :             0.000003284938
      Virial theorem: -V/T =      2.001365
@    MULPOP   C       1.98; C   _1  0.11; C   _2  0.11; C   _1  0.47; C   _2  0.47; C       0.27; N       0.45; O   _1 -0.81; O   _2 -0.81; H   _1 -0.45; 
@             H   _2 -0.45; H   _1 -0.44; H   _2 -0.44; H      -0.45; 

 (SIRSTP) Energy difference;
 actual, predicted and ratio:  -0.000000000191960  -0.000000000201426    0.953007
 Close to convergence, ratio set to one.

 *** Optimization control: MCSCF converged ***
     Number of macro iterations used           10
     Number of micro iterations used           80
     Total number of CPU seconds used      4192.48

 CPU and wall time for MCSCF :    4192.484    4193.231


                     .----------------------------------------.
                     | --- SIRIUS OPTIMIZATION STATISTICS --- |
                     `----------------------------------------'


 
     Date and time (Linux)  : Sat Feb 22 05:03:49 2020
     Host name              : Lab2-333-NPs                            


  ITER ITMIC     EMCSCF           GRDNRM        RATIO      STPLNG
 ---------------------------------------------------------------------
    1    6   -434.265226246739   0.5157067201  0.000000   0.5553167349
    2    7   -434.275747537438   0.1564762712  0.410675   0.7511764565
    3   12   -434.286424479886   0.0473402971  1.031426   0.6969161160
    4    5   -434.287287234977   0.0150708235  0.862708   0.6976655583
    5    9   -434.287483601511   0.0212537335  0.616074   0.7634543541
    6   10   -434.287937043425   0.0092585351  0.759777   0.4285309824
    7    7   -434.288008102420   0.0077583106  0.502669   0.1187420849
    8   21   -434.288041867548   0.0013502646  1.054282   0.0140813914
    9    3   -434.288042494917   0.0000116207  1.007218   0.0003045636
   10    0   -434.288042495109   0.0000059105  1.000000   0.0000000000


  ITER  INDGCM  GCIMAX      GCINRM     INDGOM  GOBMAX      GOBNRM      GRDNRM
 ------------------------------------------------------------------------------
[...]

       No.  Residual tot.,    conf., and orb.    Bnorm      Frequency 
      ----------------------------------------------------------------
         1    7.00924D-01  3.21D-01  6.23D-01  1.35D+02    0.00000D+00

 ** RSPCTL MICROITERATION NUMBER   10

 *** INFO, negative eigenvalues in reduced matrix. Symmetry  4,  triplet       F Dimension of reduced matrix =    22

 GP * SOLUTION vector at frequency     0.00000 a.u.
 after   11 linear transformations is      6.73900612D+03
 INERTIA (POS,ZER,NEG) of reduced matrix is   21    0    1
 Determinant of reduced matrix is -1.93 * 10 **-14.0

       No.  Residual tot.,    conf., and orb.    Bnorm      Frequency 
      ----------------------------------------------------------------
         1    4.46707D-01  3.79D-01  2.37D-01  1.36D+02    0.00000D+00

 ** RSPCTL MICROITERATION NUMBER   11

 *** INFO, negative eigenvalues in reduced matrix. Symmetry  4,  triplet       F Dimension of reduced matrix =    24

 GP * SOLUTION vector at frequency     0.00000 a.u.
 after   12 linear transformations is      6.73916122D+03
 INERTIA (POS,ZER,NEG) of reduced matrix is   23    0    1
 Determinant of reduced matrix is -1.67 * 10 **-14.0

       No.  Residual tot.,    conf., and orb.    Bnorm      Frequency 
      ----------------------------------------------------------------
         1    3.04543D-01  4.03D-02  3.02D-01  1.38D+02    0.00000D+00

 ** RSPCTL MICROITERATION NUMBER   12

 *** INFO, negative eigenvalues in reduced matrix. Symmetry  4,  triplet       F Dimension of reduced matrix =    26

 GP * SOLUTION vector at frequency     0.00000 a.u.
 after   13 linear transformations is      6.73943928D+03
 INERTIA (POS,ZER,NEG) of reduced matrix is   25    0    1
 Determinant of reduced matrix is -1.12 * 10 **-17.0

       No.  Residual tot.,    conf., and orb.    Bnorm      Frequency 
      ----------------------------------------------------------------
         1    6.98113D-01  1.48D-01  6.82D-01  1.55D+02    0.00000D+00

 ** RSPCTL MICROITERATION NUMBER   13

 *** INFO, negative eigenvalues in reduced matrix. Symmetry  4,  triplet       F Dimension of reduced matrix =    28

 GP * SOLUTION vector at frequency     0.00000 a.u.
 after   14 linear transformations is      6.73958301D+03
 INERTIA (POS,ZER,NEG) of reduced matrix is   27    0    1
 Determinant of reduced matrix is -2.59 * 10 **-19.0

       No.  Residual tot.,    conf., and orb.    Bnorm      Frequency 
      ----------------------------------------------------------------
         1    3.74067D-01  2.30D-01  2.95D-01  1.71D+02    0.00000D+00

 ** RSPCTL MICROITERATION NUMBER   14

 *** INFO, negative eigenvalues in reduced matrix. Symmetry  4,  triplet       F Dimension of reduced matrix =    30

 GP * SOLUTION vector at frequency     0.00000 a.u.
 after   15 linear transformations is      6.73962691D+03
 INERTIA (POS,ZER,NEG) of reduced matrix is   29    0    1
 Determinant of reduced matrix is -7.32 * 10 **-21.0

       No.  Residual tot.,    conf., and orb.    Bnorm      Frequency 
      ----------------------------------------------------------------
         1    3.08893D-01  2.64D-01  1.60D-01  1.78D+02    0.00000D+00

 ** RSPCTL MICROITERATION NUMBER   15

 *** INFO, negative eigenvalues in reduced matrix. Symmetry  4,  triplet       F Dimension of reduced matrix =    32

 GP * SOLUTION vector at frequency     0.00000 a.u.
 after   16 linear transformations is      6.73967529D+03
 INERTIA (POS,ZER,NEG) of reduced matrix is   31    0    1
 Determinant of reduced matrix is -1.18 * 10 **-20.0

       No.  Residual tot.,    conf., and orb.    Bnorm      Frequency 
      ----------------------------------------------------------------
         1    1.94644D-01  3.13D-02  1.92D-01  1.83D+02    0.00000D+00

 ** RSPCTL MICROITERATION NUMBER   16

 *** INFO, negative eigenvalues in reduced matrix. Symmetry  4,  triplet       F Dimension of reduced matrix =    34

 GP * SOLUTION vector at frequency     0.00000 a.u.
 after   17 linear transformations is      6.73968705D+03
 INERTIA (POS,ZER,NEG) of reduced matrix is   33    0    1
 Determinant of reduced matrix is -1.31 * 10 **-22.0

       No.  Residual tot.,    conf., and orb.    Bnorm      Frequency 
      ----------------------------------------------------------------
         1    5.80585D-02  4.01D-02  4.20D-02  1.85D+02    0.00000D+00

 *** THE REQUESTED    1 SOLUTION VECTORS CONVERGED

 Convergence of RSP solution vectors, threshold = 1.00D-03
 ---------------------------------------------------------------
 (dimension of paired reduced space:   34)
 RSP solution vector no.    1; norm of residual   3.14D-04

 *** RSPCTL MICROITERATIONS CONVERGED
    XDIPLEN     YDIPLEN      freq1     freq2                Norm
 ---------------------------------------------------------------
                          0.058400 -0.058400        184.85785793


 Perturbation symmetry.     KSYMOP:       1
 Perturbation spin symmetry.TRPLET:       F
 Orbital variables.         KZWOPT:    2762
 Configuration variables.   KZCONF:     115
 Total number of variables. KZVAR :    2877


 CRLRV2 -- linear response calc for sym:  1
 CRLRV2 -- operator label1: YDIPLEN 
 CRLRV2 -- operator label2: YDIPLEN 
 CRLRV2 -- freqr1 :   5.840000D-02
 CRLRV2 -- freqr2 :   5.840000D-02



 ---  SOLVING SETS OF LINEAR EQUATIONS FOR LINEAR RESPONSE PROPERTIES ---

 Operator symmetry = 1  ( A1 ); triplet =   F


 ** RSPCTL MICROITERATION NUMBER    1

       No.  Residual tot.,    conf., and orb.    Bnorm      Frequency 
      ----------------------------------------------------------------
         1    1.60795D+01  1.15D+00  1.60D+01  8.59D+01    1.16800D-01

 ** RSPCTL MICROITERATION NUMBER    2

       No.  Residual tot.,    conf., and orb.    Bnorm      Frequency 
      ----------------------------------------------------------------
         1    7.33970D+00  1.31D+00  7.22D+00  9.15D+01    1.16800D-01

 ** RSPCTL MICROITERATION NUMBER    3

       No.  Residual tot.,    conf., and orb.    Bnorm      Frequency 
      ----------------------------------------------------------------
         1    2.97086D+00  1.53D+00  2.55D+00  9.36D+01    1.16800D-01

 ** RSPCTL MICROITERATION NUMBER    4

       No.  Residual tot.,    conf., and orb.    Bnorm      Frequency 
      ----------------------------------------------------------------
         1    1.89736D+00  1.66D+00  9.25D-01  9.42D+01    1.16800D-01

 ** RSPCTL MICROITERATION NUMBER    5

       No.  Residual tot.,    conf., and orb.    Bnorm      Frequency 
      ----------------------------------------------------------------
         1    1.58249D+00  5.40D-01  1.49D+00  9.46D+01    1.16800D-01

 ** RSPCTL MICROITERATION NUMBER    6

       No.  Residual tot.,    conf., and orb.    Bnorm      Frequency 
      ----------------------------------------------------------------
         1    1.44017D+00  7.34D-01  1.24D+00  9.57D+01    1.16800D-01

 ** RSPCTL MICROITERATION NUMBER    7

       No.  Residual tot.,    conf., and orb.    Bnorm      Frequency 
      ----------------------------------------------------------------
         1    9.67795D-01  8.28D-01  5.02D-01  9.68D+01    1.16800D-01

 ** RSPCTL MICROITERATION NUMBER    8

       No.  Residual tot.,    conf., and orb.    Bnorm      Frequency 
      ----------------------------------------------------------------
         1    7.17610D-01  3.88D-01  6.04D-01  9.70D+01    1.16800D-01

 ** RSPCTL MICROITERATION NUMBER    9

       No.  Residual tot.,    conf., and orb.    Bnorm      Frequency 
      ----------------------------------------------------------------
         1    4.50587D-01  3.97D-01  2.13D-01  9.74D+01    1.16800D-01

 ** RSPCTL MICROITERATION NUMBER   10

       No.  Residual tot.,    conf., and orb.    Bnorm      Frequency 
      ----------------------------------------------------------------
         1    3.14292D-01  6.83D-02  3.07D-01  9.79D+01    1.16800D-01

 ** RSPCTL MICROITERATION NUMBER   11

       No.  Residual tot.,    conf., and orb.    Bnorm      Frequency 
      ----------------------------------------------------------------
         1    1.51251D-01  8.08D-02  1.28D-01  9.79D+01    1.16800D-01

 ** RSPCTL MICROITERATION NUMBER   12

       No.  Residual tot.,    conf., and orb.    Bnorm      Frequency 
      ----------------------------------------------------------------
         1    9.03398D-02  8.33D-02  3.49D-02  9.78D+01    1.16800D-01

 *** THE REQUESTED    1 SOLUTION VECTORS CONVERGED

 Convergence of RSP solution vectors, threshold = 1.00D-03
 ---------------------------------------------------------------
 (dimension of paired reduced space:   26)
 RSP solution vector no.    1; norm of residual   9.24D-04

 *** RSPCTL MICROITERATIONS CONVERGED
    YDIPLEN     YDIPLEN      freq1     freq2                Norm
 ---------------------------------------------------------------
                          0.058400  0.058400         97.82309857
  Time used in CRVEC2     is       2 hours 29 minutes 37 seconds


 ----- CALCULATING CONTRIBUTIONS TO SECOND HYPERPOLARIZABILITY -----


   Contribution                Term         Accumulated
 ------------------------------------------------------
 Na T[4] Nb Nc Nd    81665.51595843      81665.51595843
 Na T[3] Nx Nyz    -155475.45902925     -73809.94307082
 Na X[3] Ny Nz       69024.58582415      -4785.35724668
 Nx A[3] Ny Nz       23008.19527472      18222.83802804
 Na X[2] Nyz        -21164.80116241      -2941.96313437
 Nx A[2] Nyz        -46385.06269663     -49327.02583100

@ Cubic response function value in a.u. for
@ A operator, symmetry, frequency:   ZDIPLEN    1 -0.058400
@ B operator, symmetry, frequency:   ZDIPLEN    1  0.058400
@ C operator, symmetry, frequency:   ZDIPLEN    1 -0.058400
@ D operator, symmetry, frequency:   ZDIPLEN    1  0.058400

@ << A; B, C, D >>  =      -49327.02583100



   Contribution                Term         Accumulated
 ------------------------------------------------------
 Na T[4] Nb Nc Nd   169135.14312065     169135.14312065
 Na T[3] Nx Nyz   -1724473.05957618   -1555337.91645553
 Na X[3] Ny Nz       63552.71573716   -1491785.20071837
 Nx A[3] Ny Nz       15894.09925748   -1475891.10146089
 Na X[2] Nyz        441577.26607863   -1034313.83538226
 Nx A[2] Nyz        -93443.95863909   -1127757.79402134

@ Cubic response function value in a.u. for
@ A operator, symmetry, frequency:   XDIPLEN    2 -0.058400
@ B operator, symmetry, frequency:   XDIPLEN    2  0.058400
@ C operator, symmetry, frequency:   ZDIPLEN    1 -0.058400
@ D operator, symmetry, frequency:   ZDIPLEN    1  0.058400

@ << A; B, C, D >>  =    -1127757.79402134



   Contribution                Term         Accumulated
 ------------------------------------------------------
 Na T[4] Nb Nc Nd    -4225.05966244      -4225.05966244
 Na T[3] Nx Nyz      -1666.41400858      -5891.47367102
 Na X[3] Ny Nz        7919.37724301       2027.90357199
 Nx A[3] Ny Nz        2739.18296961       4767.08654160
 Na X[2] Nyz         -1674.50539996       3092.58114165
 Nx A[2] Nyz         -7228.39252210      -4135.81138045

@ Cubic response function value in a.u. for
@ A operator, symmetry, frequency:   YDIPLEN    3 -0.058400
@ B operator, symmetry, frequency:   YDIPLEN    3  0.058400
@ C operator, symmetry, frequency:   ZDIPLEN    1 -0.058400
@ D operator, symmetry, frequency:   ZDIPLEN    1  0.058400

@ << A; B, C, D >>  =       -4135.81138045



   Contribution                Term         Accumulated
 ------------------------------------------------------
 Na T[4] Nb Nc Nd   152925.80390526     152925.80390526
 Na T[3] Nx Nyz    -837309.28694380    -684383.48303854
 Na X[3] Ny Nz       61621.68673148    -622761.79630706
 Nx A[3] Ny Nz       15130.92435828    -607630.87194878
 Na X[2] Nyz        159870.79012997    -447760.08181881
 Nx A[2] Nyz        -42581.98105860    -490342.06287741

@ Cubic response function value in a.u. for
@ A operator, symmetry, frequency:   XDIPLEN    2 -0.058400
@ B operator, symmetry, frequency:   ZDIPLEN    1  0.058400
@ C operator, symmetry, frequency:   XDIPLEN    2 -0.058400
@ D operator, symmetry, frequency:   ZDIPLEN    1  0.058400

@ << A; B, C, D >>  =     -490342.06287741



   Contribution                Term         Accumulated
 ------------------------------------------------------
 Na T[4] Nb Nc Nd    -4109.56170957      -4109.56170957
 Na T[3] Nx Nyz      -1573.87548442      -5683.43719400
 Na X[3] Ny Nz        7642.24933671       1958.81214271
 Nx A[3] Ny Nz        2561.31079438       4520.12293709
 Na X[2] Nyz         -1595.01619201       2925.10674508
 Nx A[2] Nyz         -6815.75098905      -3890.64424397

@ Cubic response function value in a.u. for
@ A operator, symmetry, frequency:   YDIPLEN    3 -0.058400
@ B operator, symmetry, frequency:   ZDIPLEN    1  0.058400
@ C operator, symmetry, frequency:   YDIPLEN    3 -0.058400
@ D operator, symmetry, frequency:   ZDIPLEN    1  0.058400

@ << A; B, C, D >>  =       -3890.64424397



   Contribution                Term         Accumulated
 ------------------------------------------------------
 Na T[4] Nb Nc Nd   187872.18769762     187872.18769762
 Na T[3] Nx Nyz    -852672.31123515    -664800.12353753
 Na X[3] Ny Nz       76764.80440261    -588035.31913492
 Nx A[3] Ny Nz       30997.90601975    -557037.41311517
 Na X[2] Nyz        -63756.31016377    -620793.72327894
 Nx A[2] Nyz        130455.04453920    -490338.67873973

@ Cubic response function value in a.u. for
@ A operator, symmetry, frequency:   ZDIPLEN    1 -0.058400
@ B operator, symmetry, frequency:   XDIPLEN    2  0.058400
@ C operator, symmetry, frequency:   ZDIPLEN    1 -0.058400
@ D operator, symmetry, frequency:   XDIPLEN    2  0.058400

@ << A; B, C, D >>  =     -490338.67873973



   Contribution                Term         Accumulated
 ------------------------------------------------------
 Na T[4] Nb Nc Nd 10604036.98182372   10604036.98182372
 Na T[3] Nx Nyz  -11313758.80568284    -709721.82385912
 Na X[3] Ny Nz      816969.80110268     107247.97724356
 Nx A[3] Ny Nz      272323.26703423     379571.24427779
 Na X[2] Nyz        106860.00394933     486431.24822712
 Nx A[2] Nyz       -359051.96992496     127379.27830216

@ Cubic response function value in a.u. for
@ A operator, symmetry, frequency:   XDIPLEN    2 -0.058400
@ B operator, symmetry, frequency:   XDIPLEN    2  0.058400
@ C operator, symmetry, frequency:   XDIPLEN    2 -0.058400
@ D operator, symmetry, frequency:   XDIPLEN    2  0.058400

@ << A; B, C, D >>  =      127379.27830216



   Contribution                Term         Accumulated
 ------------------------------------------------------
 Na T[4] Nb Nc Nd    -1692.66848538      -1692.66848538
 Na T[3] Nx Nyz      -3152.50964820      -4845.17813357
 Na X[3] Ny Nz        9007.68340965       4162.50527607
 Nx A[3] Ny Nz        1422.49971786       5585.00499393
 Na X[2] Nyz         -1649.34797726       3935.65701667
 Nx A[2] Nyz         -7808.70382652      -3873.04680985

@ Cubic response function value in a.u. for
@ A operator, symmetry, frequency:   YDIPLEN    3 -0.058400
@ B operator, symmetry, frequency:   YDIPLEN    3  0.058400
@ C operator, symmetry, frequency:   XDIPLEN    2 -0.058400
@ D operator, symmetry, frequency:   XDIPLEN    2  0.058400

@ << A; B, C, D >>  =       -3873.04680985



   Contribution                Term         Accumulated
 ------------------------------------------------------
 Na T[4] Nb Nc Nd    -1626.06958253      -1626.06958253
 Na T[3] Nx Nyz      -3719.72320261      -5345.79278514
 Na X[3] Ny Nz        8576.57670680       3230.78392166
 Nx A[3] Ny Nz        1104.64049331       4335.42441497
 Na X[2] Nyz          -797.13429036       3538.29012461
 Nx A[2] Nyz         -6123.94643974      -2585.65631513

@ Cubic response function value in a.u. for
@ A operator, symmetry, frequency:   YDIPLEN    3 -0.058400
@ B operator, symmetry, frequency:   XDIPLEN    2  0.058400
@ C operator, symmetry, frequency:   YDIPLEN    3 -0.058400
@ D operator, symmetry, frequency:   XDIPLEN    2  0.058400

@ << A; B, C, D >>  =       -2585.65631513



   Contribution                Term         Accumulated
 ------------------------------------------------------
 Na T[4] Nb Nc Nd     -126.11833838       -126.11833838
 Na T[3] Nx Nyz       1160.77043073       1034.65209235
 Na X[3] Ny Nz         204.12850700       1238.78059935
 Nx A[3] Ny Nz          54.14848686       1292.92908620
 Na X[2] Nyz         -3519.65532195      -2226.72623575
 Nx A[2] Nyz         -1667.50947386      -3894.23570961

@ Cubic response function value in a.u. for
@ A operator, symmetry, frequency:   ZDIPLEN    1 -0.058400
@ B operator, symmetry, frequency:   YDIPLEN    3  0.058400
@ C operator, symmetry, frequency:   ZDIPLEN    1 -0.058400
@ D operator, symmetry, frequency:   YDIPLEN    3  0.058400

@ << A; B, C, D >>  =       -3894.23570961



   Contribution                Term         Accumulated
 ------------------------------------------------------
 Na T[4] Nb Nc Nd     4144.98984700       4144.98984700
 Na T[3] Nx Nyz       7303.52204042      11448.51188741
 Na X[3] Ny Nz       -4978.75855105       6469.75333636
 Nx A[3] Ny Nz          94.63222527       6564.38556163
 Na X[2] Nyz         -7176.47171189       -612.08615026
 Nx A[2] Nyz         -1949.79720173      -2561.88335199

@ Cubic response function value in a.u. for
@ A operator, symmetry, frequency:   XDIPLEN    2 -0.058400
@ B operator, symmetry, frequency:   YDIPLEN    3  0.058400
@ C operator, symmetry, frequency:   XDIPLEN    2 -0.058400
@ D operator, symmetry, frequency:   YDIPLEN    3  0.058400

@ << A; B, C, D >>  =       -2561.88335199



   Contribution                Term         Accumulated
 ------------------------------------------------------
 Na T[4] Nb Nc Nd     -504.12183146       -504.12183146
 Na T[3] Nx Nyz       2240.97824294       1736.85641148
 Na X[3] Ny Nz        1453.12235787       3189.97876935
 Nx A[3] Ny Nz         484.37411929       3674.35288864
 Na X[2] Nyz         -6654.26023576      -2979.90734712
 Nx A[2] Nyz         -6687.05519735      -9666.96254447

@ Cubic response function value in a.u. for
@ A operator, symmetry, frequency:   YDIPLEN    3 -0.058400
@ B operator, symmetry, frequency:   YDIPLEN    3  0.058400
@ C operator, symmetry, frequency:   YDIPLEN    3 -0.058400
@ D operator, symmetry, frequency:   YDIPLEN    3  0.058400

@ << A; B, C, D >>  =       -9666.96254447



  Summary of gamma values for a set of frequencies
 -------------------------------------------------

@ B-freq:  0.058400
@ C-freq: -0.058400
@ D-freq:  0.058400

@ gamma(X;X,X,X)    -127379.2783
@ gamma(X;X,Y,Y)       3873.0468
@ gamma(X;Y,Y,X)       3873.0468
@ gamma(X;Y,X,Y)       2561.8834
@ gamma(X;X,Z,Z)    1127757.7940
@ gamma(X;Z,Z,X)    1127757.7940
@ gamma(X;Z,X,Z)     490342.0629
@ gamma(Y;Y,X,X)       3873.0468
@ gamma(Y;X,X,Y)       3873.0468
@ gamma(Y;X,Y,X)       2585.6563
@ gamma(Y;Y,Y,Y)       9666.9625
@ gamma(Y;Y,Z,Z)       4135.8114
@ gamma(Y;Z,Z,Y)       4135.8114
@ gamma(Y;Z,Y,Z)       3890.6442
@ gamma(Z;Z,X,X)    1127757.7940
@ gamma(Z;X,X,Z)    1127757.7940
@ gamma(Z;X,Z,X)     490338.6787
@ gamma(Z;Z,Y,Y)       4135.8114
@ gamma(Z;Y,Y,Z)       4135.8114
@ gamma(Z;Y,Z,Y)       3894.2357
@ gamma(Z;Z,Z,Z)      49327.0258

@ Averaged gamma parallel to the applied field is    355434.926687

  Total CPU  time used in RESPONSE:   7 hours 20 minutes 27 seconds
  Total wall time used in RESPONSE:   7 hours 20 minutes 33 seconds


                   .-------------------------------------------.
                   | End of Dynamic Property Section (RESPONS) |
                   `-------------------------------------------'

  Total CPU  time used in DALTON:   8 hours 45 minutes 35 seconds
  Total wall time used in DALTON:   8 hours 45 minutes 43 seconds

 
     Date and time (Linux)  : Sat Feb 22 12:24:22 2020
     Host name              : Lab2-333-NPs                            
