

     ************************************************************************
     *************** Dalton - An Electronic Structure Program ***************
     ************************************************************************

    This is output from DALTON release Dalton2018.1 (2019)
         ( Web site: http://daltonprogram.org )

   ----------------------------------------------------------------------------

    NOTE:
     
    Dalton is an experimental code for the evaluation of molecular
    properties using (MC)SCF, DFT, CI, and CC wave functions.
    The authors accept no responsibility for the performance of
    the code or for the correctness of the results.
     
    The code (in whole or part) is provided under a licence and
    is not to be reproduced for further distribution without
    the written permission of the authors or their representatives.
     
    See the home page "http://daltonprogram.org" for further information.
     
    If results obtained with this code are published,
    the appropriate citations would be both of:
     
       K. Aidas, C. Angeli, K. L. Bak, V. Bakken, R. Bast,
       L. Boman, O. Christiansen, R. Cimiraglia, S. Coriani,
       P. Dahle, E. K. Dalskov, U. Ekstroem,
       T. Enevoldsen, J. J. Eriksen, P. Ettenhuber, B. Fernandez,
       L. Ferrighi, H. Fliegl, L. Frediani, K. Hald, A. Halkier,
       C. Haettig, H. Heiberg, T. Helgaker, A. C. Hennum,
       H. Hettema, E. Hjertenaes, S. Hoest, I.-M. Hoeyvik,
       M. F. Iozzi, B. Jansik, H. J. Aa. Jensen, D. Jonsson,
       P. Joergensen, J. Kauczor, S. Kirpekar,
       T. Kjaergaard, W. Klopper, S. Knecht, R. Kobayashi, H. Koch,
       J. Kongsted, A. Krapp, K. Kristensen, A. Ligabue,
       O. B. Lutnaes, J. I. Melo, K. V. Mikkelsen, R. H. Myhre,
       C. Neiss, C. B. Nielsen, P. Norman, J. Olsen,
       J. M. H. Olsen, A. Osted, M. J. Packer, F. Pawlowski,
       T. B. Pedersen, P. F. Provasi, S. Reine, Z. Rinkevicius,
       T. A. Ruden, K. Ruud, V. Rybkin, P. Salek, C. C. M. Samson,
       A. Sanchez de Meras, T. Saue, S. P. A. Sauer,
       B. Schimmelpfennig, K. Sneskov, A. H. Steindal,
       K. O. Sylvester-Hvid, P. R. Taylor, A. M. Teale,
       E. I. Tellgren, D. P. Tew, A. J. Thorvaldsen, L. Thoegersen,
       O. Vahtras, M. A. Watson, D. J. D. Wilson, M. Ziolkowski
       and H. Agren,
       "The Dalton quantum chemistry program system",
       WIREs Comput. Mol. Sci. 2014, 4:269–284 (doi: 10.1002/wcms.1172)
     
    and
     
       Dalton, a molecular electronic structure program,
       Release Dalton2018.1 (2019), see http://daltonprogram.org
   ----------------------------------------------------------------------------

    Authors in alphabetical order (major contribution(s) in parenthesis):

  Kestutis Aidas,           Vilnius University,           Lithuania   (QM/MM)
  Celestino Angeli,         University of Ferrara,        Italy       (NEVPT2)
  Keld L. Bak,              UNI-C,                        Denmark     (AOSOPPA, non-adiabatic coupling, magnetic properties)
  Vebjoern Bakken,          University of Oslo,           Norway      (DALTON; geometry optimizer, symmetry detection)
  Radovan Bast,             UiT The Arctic U. of Norway,  Norway      (DALTON installation and execution frameworks)
  Pablo Baudin,             University of Valencia,       Spain       (Cholesky excitation energies)
  Linus Boman,              NTNU,                         Norway      (Cholesky decomposition and subsystems)
  Ove Christiansen,         Aarhus University,            Denmark     (CC module)
  Renzo Cimiraglia,         University of Ferrara,        Italy       (NEVPT2)
  Sonia Coriani,            Technical Univ. of Denmark,   Denmark     (CC module, MCD in RESPONS)
  Janusz Cukras,            University of Trieste,        Italy       (MChD in RESPONS)
  Paal Dahle,               University of Oslo,           Norway      (Parallelization)
  Erik K. Dalskov,          UNI-C,                        Denmark     (SOPPA)
  Thomas Enevoldsen,        Univ. of Southern Denmark,    Denmark     (SOPPA)
  Janus J. Eriksen,         Aarhus University,            Denmark     (Polarizable embedding model, TDA)
  Rasmus Faber,             University of Copenhagen,     Denmark     (Vib.avg. NMR with SOPPA, parallel AO-SOPPA)
  Tobias Fahleson,          KTH Stockholm,                Sweden      (Damped cubic response)
  Berta Fernandez,          U. of Santiago de Compostela, Spain       (doublet spin, ESR in RESPONS)
  Lara Ferrighi,            Aarhus University,            Denmark     (PCM Cubic response)
  Heike Fliegl,             University of Oslo,           Norway      (CCSD(R12))
  Luca Frediani,            UiT The Arctic U. of Norway,  Norway      (PCM)
  Bin Gao,                  UiT The Arctic U. of Norway,  Norway      (Gen1Int library)
  Christof Haettig,         Ruhr-University Bochum,       Germany     (CC module)
  Kasper Hald,              Aarhus University,            Denmark     (CC module)
  Asger Halkier,            Aarhus University,            Denmark     (CC module)
  Frederik Beyer Hansen,    University of Copenhagen,     Denmark     (Parallel AO-SOPPA)
  Erik D. Hedegaard,        Univ. of Southern Denmark,    Denmark     (Polarizable embedding model, QM/MM)
  Hanne Heiberg,            University of Oslo,           Norway      (geometry analysis, selected one-electron integrals)
  Trygve Helgaker,          University of Oslo,           Norway      (DALTON; ABACUS, ERI, DFT modules, London, and much more)
  Alf Christian Hennum,     University of Oslo,           Norway      (Parity violation)
  Hinne Hettema,            University of Auckland,       New Zealand (quadratic response in RESPONS; SIRIUS supersymmetry)
  Eirik Hjertenaes,         NTNU,                         Norway      (Cholesky decomposition)
  Pi A. B. Haase,           University of Copenhagen,     Denmark     (Triplet AO-SOPPA)
  Maria Francesca Iozzi,    University of Oslo,           Norway      (RPA)
  Christoph Jacob           TU Braunschweig               Germany     (Frozen density embedding model)
  Brano Jansik              Technical Univ. of Ostrava    Czech Rep.  (DFT cubic response)
  Hans Joergen Aa. Jensen,  Univ. of Southern Denmark,    Denmark     (DALTON; SIRIUS, RESPONS, ABACUS modules, London, and much more)
  Dan Jonsson,              UiT The Arctic U. of Norway,  Norway      (cubic response in RESPONS module)
  Poul Joergensen,          Aarhus University,            Denmark     (RESPONS, ABACUS, and CC modules)
  Maciej Kaminski,          University of Warsaw,         Poland      (CPPh in RESPONS)
  Joanna Kauczor,           Linkoeping University,        Sweden      (Complex polarization propagator (CPP) module)
  Sheela Kirpekar,          Univ. of Southern Denmark,    Denmark     (Mass-velocity & Darwin integrals)
  Wim Klopper,              KIT Karlsruhe,                Germany     (R12 code in CC, SIRIUS, and ABACUS modules)
  Stefan Knecht,            ETH Zurich,                   Switzerland (Parallel CI and MCSCF)
  Rika Kobayashi,           Australian National Univ.,    Australia   (DIIS in CC, London in MCSCF)
  Henrik Koch,              NTNU,                         Norway      (CC module, Cholesky decomposition)
  Jacob Kongsted,           Univ. of Southern Denmark,    Denmark     (Polarizable embedding model, QM/MM)
  Andrea Ligabue,           University of Modena,         Italy       (CTOCD, AOSOPPA)
  Nanna H. List             Univ. of Southern Denmark,    Denmark     (Polarizable embedding model)
  Ola B. Lutnaes,           University of Oslo,           Norway      (DFT Hessian)
  Juan I. Melo,             University of Buenos Aires,   Argentina   (LRESC, Relativistic Effects on NMR Shieldings)
  Kurt V. Mikkelsen,        University of Copenhagen,     Denmark     (MC-SCRF and QM/MM)
  Rolf H. Myhre,            NTNU,                         Norway      (Subsystems and CC3)
  Christian Neiss,          Univ. Erlangen-Nuernberg,     Germany     (CCSD(R12))
  Christian B. Nielsen,     University of Copenhagen,     Denmark     (QM/MM)
  Patrick Norman,           KTH Stockholm,                Sweden      (Cubic response and complex frequency response in RESPONS)
  Jeppe Olsen,              Aarhus University,            Denmark     (SIRIUS CI/density modules)
  Jogvan Magnus H. Olsen,   Univ. of Southern Denmark,    Denmark     (Polarizable embedding model, QM/MM)
  Anders Osted,             Copenhagen University,        Denmark     (QM/MM)
  Martin J. Packer,         University of Sheffield,      UK          (SOPPA)
  Filip Pawlowski,          Kazimierz Wielki University,  Poland      (CC3)
  Morten N. Pedersen,       Univ. of Southern Denmark,    Denmark     (Polarizable embedding model)
  Thomas B. Pedersen,       University of Oslo,           Norway      (Cholesky decomposition)
  Patricio F. Provasi,      University of Northeastern,   Argentina   (Analysis of coupling constants in localized orbitals)
  Zilvinas Rinkevicius,     KTH Stockholm,                Sweden      (open-shell DFT, ESR)
  Elias Rudberg,            KTH Stockholm,                Sweden      (DFT grid and basis info)
  Torgeir A. Ruden,         University of Oslo,           Norway      (Numerical derivatives in ABACUS)
  Kenneth Ruud,             UiT The Arctic U. of Norway,  Norway      (DALTON; ABACUS magnetic properties and much more)
  Pawel Salek,              KTH Stockholm,                Sweden      (DALTON; DFT code)
  Claire C. M. Samson       University of Karlsruhe       Germany     (Boys localization, r12 integrals in ERI)
  Alfredo Sanchez de Meras, University of Valencia,       Spain       (CC module, Cholesky decomposition)
  Trond Saue,               Paul Sabatier University,     France      (direct Fock matrix construction)
  Stephan P. A. Sauer,      University of Copenhagen,     Denmark     (SOPPA(CCSD), SOPPA prop., AOSOPPA, vibrational g-factors)
  Andre S. P. Gomes,        CNRS/Universite de Lille,     France      (Frozen density embedding model)
  Bernd Schimmelpfennig,    Forschungszentrum Karlsruhe,  Germany     (AMFI module)
  Kristian Sneskov,         Aarhus University,            Denmark     (Polarizable embedding model, QM/MM)
  Arnfinn H. Steindal,      UiT The Arctic U. of Norway,  Norway      (parallel QM/MM, Polarizable embedding model)
  Casper Steinmann,         Univ. of Southern Denmark,    Denmark     (QFIT, Polarizable embedding model)
  K. O. Sylvester-Hvid,     University of Copenhagen,     Denmark     (MC-SCRF)
  Peter R. Taylor,          VLSCI/Univ. of Melbourne,     Australia   (Symmetry handling ABACUS, integral transformation)
  Andrew M. Teale,          University of Nottingham,     England     (DFT-AC, DFT-D)
  David P. Tew,             University of Bristol,        England     (CCSD(R12))
  Olav Vahtras,             KTH Stockholm,                Sweden      (triplet response, spin-orbit, ESR, TDDFT, open-shell DFT)
  Lucas Visscher,           Vrije Universiteit Amsterdam, Netherlands (Frozen density embedding model)
  David J. Wilson,          La Trobe University,          Australia   (DFT Hessian and DFT magnetizabilities)
  Hans Agren,               KTH Stockholm,                Sweden      (SIRIUS module, RESPONS, MC-SCRF solvation model)
 --------------------------------------------------------------------------------

     Date and time (Linux)  : Fri Feb 21 18:35:32 2020
     Host name              : Lab2-333-NPs                            

 * Work memory size             :  1024000000 =  7.629 gigabytes.

 * Directories for basis set searches:
   1) /home/lab333/dalton/build_2018_atlas
   2) /home/lab333/dalton/build_2018_atlas/basis


Compilation information
-----------------------

 Who compiled             | lab333
 Host                     | Lab2-333-NPs
 System                   | Linux-4.4.0-43-Microsoft
 CMake generator          | Unix Makefiles
 Processor                | x86_64
 64-bit integers          | OFF
 MPI                      | OFF
 Fortran compiler         | /usr/bin/gfortran
 Fortran compiler version | GNU Fortran (Ubuntu 7.3.0-27ubuntu1~18.04) 7.3.0
 C compiler               | /usr/bin/gcc
 C compiler version       | gcc (Ubuntu 7.3.0-27ubuntu1~18.04) 7.3.0
 C++ compiler             | /usr/bin/g++
 C++ compiler version     | g++ (Ubuntu 7.3.0-27ubuntu1~18.04) 7.3.0
 BLAS                     | /usr/lib/x86_64-linux-gnu/libf77blas.so;/usr/lib/x
                          | 86_64-linux-gnu/libcblas.so;/usr/lib/x86_64-linux-
                          | gnu/libatlas.so
 LAPACK                   | /usr/lib/x86_64-linux-gnu/libatlas.so;/usr/lib/x86
                          | _64-linux-gnu/atlas/liblapack.so
 Static linking           | OFF
 Last Git revision        | da625bf48c74028e805616daee31bc5d76b3a20d
 Git branch               | (HEAD detached at Dalton2018.1)
 Configuration time       | 2019-01-18 10:20:51.437510


   Content of the .dal input file
 ----------------------------------

**DALTON INPUT
.RUN RESPONSE
.DIRECT
**WAVE FUNCTIONS
.HF
.MP2
.MCSCF
*CONFIGURATION INPUT
.SPIN MULTIPLICITY
1
.SYMMETRY
1
.INACTIVE ORBITALS
15 10 2 0
.CAS SPACE
1 1 2 3
.ELECTRONS
10
*ORBITAL INPUT
.MOSTART
.HUCKEL
*OPTIMIZATION
.DETERMINANTS
.STATE
1
*CI VECTOR
.PLUS COMBINATIONS
**RESPONSE
*CUBIC
.DIPLEN
.BFREQ
1
0.0584
.CFREQ
1
-0.0584
.DFREQ
1
0.0584
**END OF DALTON INPUT


   Content of the .mol file
 ----------------------------

BASIS
aug-cc-pCVDZ
 nitrobenzene
 Generated by the Dalton Input File Plugin for Avogadro
Atomtypes=4 Angstrom Generators=2 X Y
Charge=6.0 Atoms=4
C        0.0000000000            0.0000000000           -0.0265759623
C       -1.2190534920            0.0000000000           -0.6979856948
C       -1.2105095870            0.0000000000           -2.0897394457
C        0.0000000000            0.0000000000           -2.7841484631
Charge=7.0 Atoms=1
N        0.0000000000            0.0000000000            1.3549291695999999
Charge=8.0 Atoms=1
O       1.0847503743            0.0            1.9235779798000001
Charge=1.0 Atoms=3
H       -2.1410602955            0.0000000000           -0.1327964319
H       -2.1492827751            0.0000000000           -2.6311811056
H        0.0000000000            0.0000000000           -3.8683953478


       *******************************************************************
       *********** Output from DALTON general input processing ***********
       *******************************************************************

 --------------------------------------------------------------------------------
   Overall default print level:    0
   Print level for DALTON.STAT:    1

    AO-direct calculation (in sections where implemented)
    HERMIT 1- and 2-electron integral sections will be executed
    "Old" integral transformation used (limited to max 255 basis functions)
    Wave function sections will be executed (SIRIUS module)
    Dynamic molecular response properties section will be executed (RESPONSE module)
 --------------------------------------------------------------------------------


   ****************************************************************************
   *************** Output of molecule and basis set information ***************
   ****************************************************************************


    The two title cards from your ".mol" input:
    ------------------------------------------------------------------------
 1:  nitrobenzene                                                           
 2:  Generated by the Dalton Input File Plugin for Avogadro                 
    ------------------------------------------------------------------------

  Coordinates are entered in Angstrom and converted to atomic units.
          - Conversion factor : 1 bohr = 0.52917721 A

  Atomic type no.    1
  --------------------
  Nuclear charge:   6.00000
  Number of symmetry independent centers:    4
  Number of basis sets to read;    2
  Basis set file used for this atomic type with Z =   6 :
     "/home/lab333/dalton/build_2018_atlas/basis/aug-cc-pCVDZ"

  Atomic type no.    2
  --------------------
  Nuclear charge:   7.00000
  Number of symmetry independent centers:    1
  Number of basis sets to read;    2
  Basis set file used for this atomic type with Z =   7 :
     "/home/lab333/dalton/build_2018_atlas/basis/aug-cc-pCVDZ"

  Atomic type no.    3
  --------------------
  Nuclear charge:   8.00000
  Number of symmetry independent centers:    1
  Number of basis sets to read;    2
  Basis set file used for this atomic type with Z =   8 :
     "/home/lab333/dalton/build_2018_atlas/basis/aug-cc-pCVDZ"

  Atomic type no.    4
  --------------------
  Nuclear charge:   1.00000
  Number of symmetry independent centers:    3
  Number of basis sets to read;    2
  Basis set file used for this atomic type with Z =   1 :
     "/home/lab333/dalton/build_2018_atlas/basis/aug-cc-pCVDZ"


                         SYMGRP: Point group information
                         -------------------------------

@    Point group: C2v

@  * The irrep name for each symmetry:    1: A1     2: B1     3: B2     4: A2 

   * The point group was generated by:

      Reflection in the yz-plane
      Reflection in the xz-plane

   * Group multiplication table

        |  E   C2z  Oxz  Oyz
   -----+--------------------
     E  |  E   C2z  Oxz  Oyz
    C2z | C2z   E   Oyz  Oxz
    Oxz | Oxz  Oyz   E   C2z
    Oyz | Oyz  Oxz  C2z   E 

   * Character table

        |  E   C2z  Oxz  Oyz
   -----+--------------------
    A1  |   1    1    1    1
    B1  |   1   -1    1   -1
    B2  |   1   -1   -1    1
    A2  |   1    1   -1   -1

   * Direct product table

        | A1   B1   B2   A2 
   -----+--------------------
    A1  | A1   B1   B2   A2 
    B1  | B1   A1   A2   B2 
    B2  | B2   A2   A1   B1 
    A2  | A2   B2   B1   A1 


                                 Isotopic Masses
                                 ---------------

                           C          12.000000
                           C   _1     12.000000
                           C   _2     12.000000
                           C   _1     12.000000
                           C   _2     12.000000
                           C          12.000000
                           N          14.003074
                           O   _1     15.994915
                           O   _2     15.994915
                           H   _1      1.007825
                           H   _2      1.007825
                           H   _1      1.007825
                           H   _2      1.007825
                           H           1.007825

                       Total mass:   123.032029 amu
                       Natural abundance:  92.716 %

 Center-of-mass coordinates (a.u.):    0.000000    0.000000   -0.454581


  Atoms and basis sets
  --------------------

  Number of atom types :    4
  Total number of atoms:   14

  Basis set used is "aug-cc-pCVDZ" from the basis set library.

  label    atoms   charge   prim   cont     basis
  ----------------------------------------------------------------------
  C           6    6.0000    39    27      [11s6p2d|5s4p2d]                                   
  N           1    7.0000    39    27      [11s6p2d|5s4p2d]                                   
  O           2    8.0000    39    27      [11s6p2d|5s4p2d]                                   
  H           5    1.0000    11     9      [5s2p|3s2p]                                        
  ----------------------------------------------------------------------
  total:     14   64.0000   406   288
  ----------------------------------------------------------------------
  Spherical harmonic basis used.

  Threshold for neglecting AO integrals:  1.00D-12


  Symmetry Coordinates
  --------------------

  Number of coordinates in each symmetry:    14   14    9    5


   Interatomic separations (in Angstrom):
   --------------------------------------

            C           C   _1      C   _2      C   _1      C   _2      C     
            ------      ------      ------      ------      ------      ------
 C     :    0.000000
 C   _1:    1.391719    0.000000
 C   _2:    1.391719    2.438107    0.000000
 C   _1:    2.392065    1.391780    2.799956    0.000000
 C   _2:    2.392065    2.799956    1.391780    2.421019    0.000000
 C     :    2.757573    2.416230    2.416230    1.395542    1.395542    0.000000
 N     :    1.381505    2.387583    2.387583    3.651175    3.651175    4.139078
 O   _1:    2.231543    3.490001    2.625002    4.623303    4.015287    4.831084
 O   _2:    2.231543    2.625002    3.490001    4.015287    4.623303    4.831084
 H   _1:    2.143694    1.081451    3.407316    2.166922    3.881063    3.407904
 H   _2:    2.143694    3.407316    1.081451    3.881063    2.166922    3.407904
 H   _1:    3.376890    2.145360    3.883675    1.083722    3.403140    2.154719
 H   _2:    3.376890    3.883675    2.145360    3.403140    1.083722    2.154719
 H     :    3.841819    3.396703    3.396703    2.151500    2.151500    1.084247

            N           O   _1      O   _2      H   _1      H   _2      H   _1
            ------      ------      ------      ------      ------      ------
 N     :    0.000000
 O   _1:    1.224763    0.000000
 O   _2:    1.224763    2.169501    0.000000
 H   _1:    2.607195    3.825510    2.311810    0.000000
 H   _2:    2.607195    2.311810    3.825510    4.282121    0.000000
 H   _1:    4.528630    5.586126    4.677506    2.498398    4.964773    0.000000
 H   _2:    4.528630    4.677506    5.586126    4.964773    2.498398    4.298566
 H     :    5.223325    5.892677    5.892677    4.305675    4.305675    2.479943

            H   _2      H     
            ------      ------
 H   _2:    0.000000
 H     :    2.479943    0.000000


  Max    interatomic separation is    5.8927 Angstrom (   11.1355 Bohr)
  between atoms   14 and    8, "H     " and "O   _1".

  Min HX interatomic separation is    1.0815 Angstrom (    2.0436 Bohr)

  Min YX interatomic separation is    1.2248 Angstrom (    2.3145 Bohr)


  Bond distances (Angstrom):
  --------------------------

                  atom 1     atom 2       distance
                  ------     ------       --------
  bond distance:  C   _1     C            1.391719
  bond distance:  C   _2     C            1.391719
  bond distance:  C   _1     C   _1       1.391780
  bond distance:  C   _2     C   _2       1.391780
  bond distance:  C          C   _1       1.395542
  bond distance:  C          C   _2       1.395542
  bond distance:  N          C            1.381505
  bond distance:  O   _1     N            1.224763
  bond distance:  O   _2     N            1.224763
  bond distance:  H   _1     C   _1       1.081451
  bond distance:  H   _2     C   _2       1.081451
  bond distance:  H   _1     C   _1       1.083722
  bond distance:  H   _2     C   _2       1.083722
  bond distance:  H          C            1.084247


  Bond angles (degrees):
  ----------------------

                  atom 1     atom 2     atom 3         angle
                  ------     ------     ------         -----
  bond angle:     C   _1     C          C   _2       122.311
  bond angle:     C   _1     C          N            118.844
  bond angle:     C   _2     C          N            118.844
  bond angle:     C          C   _1     C   _1       118.493
  bond angle:     C          C   _1     H   _1       119.647
  bond angle:     C   _1     C   _1     H   _1       121.860
  bond angle:     C          C   _2     C   _2       118.493
  bond angle:     C          C   _2     H   _2       119.647
  bond angle:     C   _2     C   _2     H   _2       121.860
  bond angle:     C   _1     C   _1     C            120.192
  bond angle:     C   _1     C   _1     H   _1       119.623
  bond angle:     C          C   _1     H   _1       120.185
  bond angle:     C   _2     C   _2     C            120.192
  bond angle:     C   _2     C   _2     H   _2       119.623
  bond angle:     C          C   _2     H   _2       120.185
  bond angle:     C   _1     C          C   _2       120.319
  bond angle:     C   _1     C          H            119.841
  bond angle:     C   _2     C          H            119.841
  bond angle:     C          N          O   _1       117.664
  bond angle:     C          N          O   _2       117.664
  bond angle:     O   _1     N          O   _2       124.671




 Principal moments of inertia (u*A**2) and principal axes
 --------------------------------------------------------

   IA     127.027245          0.000000    0.000000    1.000000
   IB     375.553785          1.000000    0.000000    0.000000
   IC     502.581030          0.000000    1.000000    0.000000


 Rotational constants
 --------------------

@    The molecule is planar.

               A                   B                   C

           3978.5088           1345.6901           1005.5672 MHz
            0.132709            0.044887            0.033542 cm-1


@  Nuclear repulsion energy :  417.262405691443 Hartree


  Symmetry Orbitals
  -----------------

  Number of orbitals in each symmetry:         115   91   48   34


  Symmetry  A1 ( 1)

    1     C        1s         1
    2     C        1s         2
    3     C        1s         3
    4     C        1s         4
    5     C        1s         5
    6     C        2pz        8
    7     C        2pz       11
    8     C        2pz       14
    9     C        2pz       17
   10     C        3d0       20
   11     C        3d2+      22
   12     C        3d0       25
   13     C        3d2+      27
   14     C        1s        28 +   29
   15     C        1s        30 +   31
   16     C        1s        32 +   33
   17     C        1s        34 +   35
   18     C        1s        36 +   37
   19     C        2px       38 -   39
   20     C        2pz       42 +   43
   21     C        2px       44 -   45
   22     C        2pz       48 +   49
   23     C        2px       50 -   51
   24     C        2pz       54 +   55
   25     C        2px       56 -   57
   26     C        2pz       60 +   61
   27     C        3d0       66 +   67
   28     C        3d1+      68 -   69
   29     C        3d2+      70 +   71
   30     C        3d0       76 +   77
   31     C        3d1+      78 -   79
   32     C        3d2+      80 +   81
   33     C        1s        82 +   83
   34     C        1s        84 +   85
   35     C        1s        86 +   87
   36     C        1s        88 +   89
   37     C        1s        90 +   91
   38     C        2px       92 -   93
   39     C        2pz       96 +   97
   40     C        2px       98 -   99
   41     C        2pz      102 +  103
   42     C        2px      104 -  105
   43     C        2pz      108 +  109
   44     C        2px      110 -  111
   45     C        2pz      114 +  115
   46     C        3d0      120 +  121
   47     C        3d1+     122 -  123
   48     C        3d2+     124 +  125
   49     C        3d0      130 +  131
   50     C        3d1+     132 -  133
   51     C        3d2+     134 +  135
   52     C        1s       136
   53     C        1s       137
   54     C        1s       138
   55     C        1s       139
   56     C        1s       140
   57     C        2pz      143
   58     C        2pz      146
   59     C        2pz      149
   60     C        2pz      152
   61     C        3d0      155
   62     C        3d2+     157
   63     C        3d0      160
   64     C        3d2+     162
   65     N        1s       163
   66     N        1s       164
   67     N        1s       165
   68     N        1s       166
   69     N        1s       167
   70     N        2pz      170
   71     N        2pz      173
   72     N        2pz      176
   73     N        2pz      179
   74     N        3d0      182
   75     N        3d2+     184
   76     N        3d0      187
   77     N        3d2+     189
   78     O        1s       190 +  191
   79     O        1s       192 +  193
   80     O        1s       194 +  195
   81     O        1s       196 +  197
   82     O        1s       198 +  199
   83     O        2px      200 -  201
   84     O        2pz      204 +  205
   85     O        2px      206 -  207
   86     O        2pz      210 +  211
   87     O        2px      212 -  213
   88     O        2pz      216 +  217
   89     O        2px      218 -  219
   90     O        2pz      222 +  223
   91     O        3d0      228 +  229
   92     O        3d1+     230 -  231
   93     O        3d2+     232 +  233
   94     O        3d0      238 +  239
   95     O        3d1+     240 -  241
   96     O        3d2+     242 +  243
   97     H        1s       244 +  245
   98     H        1s       246 +  247
   99     H        1s       248 +  249
  100     H        2px      250 -  251
  101     H        2pz      254 +  255
  102     H        2px      256 -  257
  103     H        2pz      260 +  261
  104     H        1s       262 +  263
  105     H        1s       264 +  265
  106     H        1s       266 +  267
  107     H        2px      268 -  269
  108     H        2pz      272 +  273
  109     H        2px      274 -  275
  110     H        2pz      278 +  279
  111     H        1s       280
  112     H        1s       281
  113     H        1s       282
  114     H        2pz      285
  115     H        2pz      288


  Symmetry  B1 ( 2)

  116     C        2px        6
  117     C        2px        9
  118     C        2px       12
  119     C        2px       15
  120     C        3d1+      21
  121     C        3d1+      26
  122     C        1s        28 -   29
  123     C        1s        30 -   31
  124     C        1s        32 -   33
  125     C        1s        34 -   35
  126     C        1s        36 -   37
  127     C        2px       38 +   39
  128     C        2pz       42 -   43
  129     C        2px       44 +   45
  130     C        2pz       48 -   49
  131     C        2px       50 +   51
  132     C        2pz       54 -   55
  133     C        2px       56 +   57
  134     C        2pz       60 -   61
  135     C        3d0       66 -   67
  136     C        3d1+      68 +   69
  137     C        3d2+      70 -   71
  138     C        3d0       76 -   77
  139     C        3d1+      78 +   79
  140     C        3d2+      80 -   81
  141     C        1s        82 -   83
  142     C        1s        84 -   85
  143     C        1s        86 -   87
  144     C        1s        88 -   89
  145     C        1s        90 -   91
  146     C        2px       92 +   93
  147     C        2pz       96 -   97
  148     C        2px       98 +   99
  149     C        2pz      102 -  103
  150     C        2px      104 +  105
  151     C        2pz      108 -  109
  152     C        2px      110 +  111
  153     C        2pz      114 -  115
  154     C        3d0      120 -  121
  155     C        3d1+     122 +  123
  156     C        3d2+     124 -  125
  157     C        3d0      130 -  131
  158     C        3d1+     132 +  133
  159     C        3d2+     134 -  135
  160     C        2px      141
  161     C        2px      144
  162     C        2px      147
  163     C        2px      150
  164     C        3d1+     156
  165     C        3d1+     161
  166     N        2px      168
  167     N        2px      171
  168     N        2px      174
  169     N        2px      177
  170     N        3d1+     183
  171     N        3d1+     188
  172     O        1s       190 -  191
  173     O        1s       192 -  193
  174     O        1s       194 -  195
  175     O        1s       196 -  197
  176     O        1s       198 -  199
  177     O        2px      200 +  201
  178     O        2pz      204 -  205
  179     O        2px      206 +  207
  180     O        2pz      210 -  211
  181     O        2px      212 +  213
  182     O        2pz      216 -  217
  183     O        2px      218 +  219
  184     O        2pz      222 -  223
  185     O        3d0      228 -  229
  186     O        3d1+     230 +  231
  187     O        3d2+     232 -  233
  188     O        3d0      238 -  239
  189     O        3d1+     240 +  241
  190     O        3d2+     242 -  243
  191     H        1s       244 -  245
  192     H        1s       246 -  247
  193     H        1s       248 -  249
  194     H        2px      250 +  251
  195     H        2pz      254 -  255
  196     H        2px      256 +  257
  197     H        2pz      260 -  261
  198     H        1s       262 -  263
  199     H        1s       264 -  265
  200     H        1s       266 -  267
  201     H        2px      268 +  269
  202     H        2pz      272 -  273
  203     H        2px      274 +  275
  204     H        2pz      278 -  279
  205     H        2px      283
  206     H        2px      286


  Symmetry  B2 ( 3)

  207     C        2py        7
  208     C        2py       10
  209     C        2py       13
  210     C        2py       16
  211     C        3d1-      19
  212     C        3d1-      24
  213     C        2py       40 +   41
  214     C        2py       46 +   47
  215     C        2py       52 +   53
  216     C        2py       58 +   59
  217     C        3d2-      62 -   63
  218     C        3d1-      64 +   65
  219     C        3d2-      72 -   73
  220     C        3d1-      74 +   75
  221     C        2py       94 +   95
  222     C        2py      100 +  101
  223     C        2py      106 +  107
  224     C        2py      112 +  113
  225     C        3d2-     116 -  117
  226     C        3d1-     118 +  119
  227     C        3d2-     126 -  127
  228     C        3d1-     128 +  129
  229     C        2py      142
  230     C        2py      145
  231     C        2py      148
  232     C        2py      151
  233     C        3d1-     154
  234     C        3d1-     159
  235     N        2py      169
  236     N        2py      172
  237     N        2py      175
  238     N        2py      178
  239     N        3d1-     181
  240     N        3d1-     186
  241     O        2py      202 +  203
  242     O        2py      208 +  209
  243     O        2py      214 +  215
  244     O        2py      220 +  221
  245     O        3d2-     224 -  225
  246     O        3d1-     226 +  227
  247     O        3d2-     234 -  235
  248     O        3d1-     236 +  237
  249     H        2py      252 +  253
  250     H        2py      258 +  259
  251     H        2py      270 +  271
  252     H        2py      276 +  277
  253     H        2py      284
  254     H        2py      287


  Symmetry  A2 ( 4)

  255     C        3d2-      18
  256     C        3d2-      23
  257     C        2py       40 -   41
  258     C        2py       46 -   47
  259     C        2py       52 -   53
  260     C        2py       58 -   59
  261     C        3d2-      62 +   63
  262     C        3d1-      64 -   65
  263     C        3d2-      72 +   73
  264     C        3d1-      74 -   75
  265     C        2py       94 -   95
  266     C        2py      100 -  101
  267     C        2py      106 -  107
  268     C        2py      112 -  113
  269     C        3d2-     116 +  117
  270     C        3d1-     118 -  119
  271     C        3d2-     126 +  127
  272     C        3d1-     128 -  129
  273     C        3d2-     153
  274     C        3d2-     158
  275     N        3d2-     180
  276     N        3d2-     185
  277     O        2py      202 -  203
  278     O        2py      208 -  209
  279     O        2py      214 -  215
  280     O        2py      220 -  221
  281     O        3d2-     224 +  225
  282     O        3d1-     226 -  227
  283     O        3d2-     234 +  235
  284     O        3d1-     236 -  237
  285     H        2py      252 -  253
  286     H        2py      258 -  259
  287     H        2py      270 -  271
  288     H        2py      276 -  277

  Symmetries of electric field:  B1 (2)  B2 (3)  A1 (1)

  Symmetries of magnetic field:  B2 (3)  B1 (2)  A2 (4)


                     .---------------------------------------.
                     | Starting in Integral Section (HERMIT) |
                     `---------------------------------------'



 ***************************************************************************************
 ****************** Output from **INTEGRALS input processing (HERMIT) ******************
 ***************************************************************************************


 - Using defaults, no **INTEGRALS input found

 Default print level:        1

 Calculation of one-electron Hamiltonian integrals.

 Center of mass  (bohr):      0.000000000000      0.000000000000     -0.454581495377
 Operator center (bohr):      0.000000000000      0.000000000000      0.000000000000
 Gauge origin    (bohr):      0.000000000000      0.000000000000      0.000000000000
 Dipole origin   (bohr):      0.000000000000      0.000000000000      0.000000000000


     ************************************************************************
     ************************** Output from HERINT **************************
     ************************************************************************



                      Nuclear contribution to dipole moments
                      --------------------------------------

                 au               Debye          C m (/(10**-30)

      z    -36.75828513       -93.43023550      -311.64971968


  Time used in GABGEN     is       0.11 seconds
  Total CPU  time used in HERMIT:   0.44 seconds
  Total wall time used in HERMIT:   0.45 seconds


                        .----------------------------------.
                        | End of Integral Section (HERMIT) |
                        `----------------------------------'



                   .--------------------------------------------.
                   | Starting in Wave Function Section (SIRIUS) |
                   `--------------------------------------------'


 *** Output from Huckel module :

     Using EWMO model:          F
     Using EHT  model:          T
     Number of Huckel orbitals each symmetry:   24   17    6    3

 Huckel EHT eigenvalues for symmetry :  1
          -20.696232     -15.710991     -11.416369     -11.396286     -11.377819
          -11.363010      -1.775714      -1.553654      -1.195204      -0.942886
           -0.813957      -0.782732      -0.637009      -0.587670      -0.491958
           -0.426757      -0.325705      -0.239799      -0.218996      -0.212859
           -0.204970      -0.177123      -0.165866      -0.159671

 Huckel EHT eigenvalues for symmetry :  2
          -20.700792     -11.396523     -11.377888      -1.411422      -1.199105
           -0.879132      -0.645805      -0.571124      -0.524856      -0.476145
           -0.414477      -0.270653      -0.212679      -0.202693      -0.176132
           -0.165233      -0.162804

 Huckel EHT eigenvalues for symmetry :  3
           -0.809755      -0.667083      -0.467286      -0.381145      -0.279577
           -0.235809

 Huckel EHT eigenvalues for symmetry :  4
           -0.593113      -0.459951      -0.288781

 **********************************************************************
 *SIRIUS* a direct, restricted step, second order MCSCF program       *
 **********************************************************************

 
     Date and time (Linux)  : Fri Feb 21 18:35:33 2020
     Host name              : Lab2-333-NPs                            

 Title lines from ".mol" input file:
      nitrobenzene                                                           
      Generated by the Dalton Input File Plugin for Avogadro                 

 Print level on unit LUPRI =   2 is   0
 Print level on unit LUW4  =   2 is   5

@    MC-SCF optimization.

@    Multi-configurational response calculation.
@              Type: complete active space calculation (CAS).

@    This is a combination run starting with
@              a restricted, closed shell Hartree-Fock calculation
@              an MP2 calculation

 Fock matrices are calculated directly without use of integrals on disk.

 Initial molecular orbitals are obtained according to
 ".MOSTART EHT   " input option

     Wave function specification
     ============================
@    Wave function type        --- MC-SCF ---
@    Number of closed shell electrons          54
@    Number of electrons in active shells      10
@    Total charge of the molecule               0

@    Spin multiplicity and 2 M_S                1         0
@    Total number of symmetries                 4 (point group: C2v)
@    Reference state symmetry                   1 (irrep name : A1 )

     Orbital specifications
     ======================
@    Abelian symmetry species          All |    1    2    3    4
@                                          |  A1   B1   B2   A2 
                                       --- |  ---  ---  ---  ---
@    Inactive orbitals                  27 |   15   10    2    0
@    Active orbitals                     7 |    1    1    2    3
@    Secondary orbitals                254 |   99   80   44   31
@    Total number of orbitals          288 |  115   91   48   34
@    Number of basis functions         288 |  115   91   48   34

      ** Automatic occupation of RHF orbitals **

      -- Initial occupation of symmetries is determined from extended Huckel guess.           
      -- Initial occupation of symmetries is :
@    Occupied SCF orbitals              32 |   16   11    3    2

     Optimization information
     ========================
@    Number of determinants                 115
@    Number of orbital rotations           2762
     ------------------------------------------
@    Total number of variables             2877

     Maximum number of macro iterations      25
     Maximum number of micro iterations     600
     Threshold for MCSCF gradient      1.00D-05
     Number of initial trial vectors          1
     Number of initial CI iterations          3
     Number of simultaneous trial vectors     1

@    This calculation converges to the lowest state for the specified symmetry and spin species.

     Maximum number of NEO/NR iterations  24

    INFORMATION: Switched to "new" integral transformation (from 1988 ;-) )
    because more than 255 basis functions.


 ***********************************************
 ***** DIIS acceleration of SCF iterations *****
 ***********************************************

 C1-DIIS algorithm; max error vectors =    8

 Automatic occupation of symmetries with  64 electrons.

 Iter     Total energy    Error norm  Delta(E)    SCF occupation
 -----------------------------------------------------------------------------
   1  Screening settings (-IFTHRS, JTDIIS, DIFDEN, times)   -8    1    T  2.78D+01  2.78D+01
@  1  -432.180183191       6.61D+00  -4.32D+02    16  11   3   2
      Virial theorem: -V/T =      1.997554
@    MULPOP   C       0.44; C   _1  0.24; C   _2  0.24; C   _1  0.22; C   _2  0.22; C       0.38; N       1.33; O   _1 -1.06; O   _2 -1.06; H   _1 -0.20; 
@             H   _2 -0.20; H   _1 -0.18; H   _2 -0.18; H      -0.19; 
   1  Level shift: doubly occupied orbital energies shifted by -2.00D-01
 -----------------------------------------------------------------------------
   2  Screening settings (-IFTHRS, JTDIIS, DIFDEN, times)   -8    2    T  2.80D+01  2.80D+01
@  2  -433.798679227       3.09D+00  -1.62D+00    16  11   3   2
      Virial theorem: -V/T =      2.000842
@    MULPOP   C       1.06; C   _1  0.34; C   _2  0.34; C   _1  0.30; C   _2  0.30; C       0.31; N       0.41; O   _1 -0.52; O   _2 -0.52; H   _1 -0.41; 
@             H   _2 -0.41; H   _1 -0.40; H   _2 -0.40; H      -0.41; 
   2  Level shift: doubly occupied orbital energies shifted by -1.00D-01
 -----------------------------------------------------------------------------
   3  Screening settings (-IFTHRS, JTDIIS, DIFDEN, times)   -8    3    T  2.78D+01  2.78D+01
@  3  -434.204640752       7.02D-01  -4.06D-01    16  11   3   2
      Virial theorem: -V/T =      2.000245
@    MULPOP   C       1.78; C   _1  0.20; C   _2  0.20; C   _1  0.43; C   _2  0.43; C       0.27; N       0.73; O   _1 -0.91; O   _2 -0.91; H   _1 -0.45; 
@             H   _2 -0.45; H   _1 -0.44; H   _2 -0.44; H      -0.44; 
   3  Level shift: doubly occupied orbital energies shifted by -2.50D-02
 -----------------------------------------------------------------------------
   4  Screening settings (-IFTHRS, JTDIIS, DIFDEN, times)   -8    4    T  2.76D+01  2.76D+01
@  4  -434.229400082       1.85D-01  -2.48D-02    16  11   3   2
      Virial theorem: -V/T =      2.002026
@    MULPOP   C       1.91; C   _1  0.14; C   _2  0.14; C   _1  0.49; C   _2  0.49; C       0.28; N       0.59; O   _1 -0.89; O   _2 -0.89; H   _1 -0.45; 
@             H   _2 -0.45; H   _1 -0.45; H   _2 -0.45; H      -0.46; 
   4  Level shift: doubly occupied orbital energies shifted by -1.25D-02
 -----------------------------------------------------------------------------
   5  Screening settings (-IFTHRS, JTDIIS, DIFDEN, times)  -10    5    F  2.81D+01  2.81D+01
@  5  -434.232042018       5.68D-02  -2.64D-03    16  11   3   2
      Virial theorem: -V/T =      2.001477
@    MULPOP   C       1.93; C   _1  0.13; C   _2  0.13; C   _1  0.48; C   _2  0.48; C       0.26; N       0.59; O   _1 -0.89; O   _2 -0.89; H   _1 -0.44; 
@             H   _2 -0.44; H   _1 -0.44; H   _2 -0.44; H      -0.44; 
 -----------------------------------------------------------------------------
   6  Screening settings (-IFTHRS, JTDIIS, DIFDEN, times)  -10    6    T  2.79D+01  2.79D+01
@  6  -434.232380712       1.61D-02  -3.39D-04    16  11   3   2
      Virial theorem: -V/T =      2.001384
@    MULPOP   C       1.95; C   _1  0.11; C   _2  0.11; C   _1  0.49; C   _2  0.49; C       0.26; N       0.57; O   _1 -0.89; O   _2 -0.89; H   _1 -0.44; 
@             H   _2 -0.44; H   _1 -0.44; H   _2 -0.44; H      -0.44; 
 -----------------------------------------------------------------------------
   7  Screening settings (-IFTHRS, JTDIIS, DIFDEN, times)  -13    7    F  2.82D+01  2.82D+01
@  7  -434.232416329       6.58D-03  -3.56D-05    16  11   3   2
      Virial theorem: -V/T =      2.001425
@    MULPOP   C       1.96; C   _1  0.11; C   _2  0.11; C   _1  0.49; C   _2  0.49; C       0.26; N       0.57; O   _1 -0.89; O   _2 -0.89; H   _1 -0.44; 
@             H   _2 -0.44; H   _1 -0.44; H   _2 -0.44; H      -0.44; 
 -----------------------------------------------------------------------------
   8  Screening settings (-IFTHRS, JTDIIS, DIFDEN, times)  -13    8    T  2.81D+01  2.81D+01
@  8  -434.232422112       2.17D-03  -5.78D-06    16  11   3   2
      Virial theorem: -V/T =      2.001413
@    MULPOP   C       1.96; C   _1  0.11; C   _2  0.11; C   _1  0.49; C   _2  0.49; C       0.26; N       0.56; O   _1 -0.89; O   _2 -0.89; H   _1 -0.44; 
@             H   _2 -0.44; H   _1 -0.44; H   _2 -0.44; H      -0.44; 
 -----------------------------------------------------------------------------
   9  Screening settings (-IFTHRS, JTDIIS, DIFDEN, times)  -13    9    T  2.78D+01  2.79D+01
@  9  -434.232422719       6.75D-04  -6.06D-07    16  11   3   2
      Virial theorem: -V/T =      2.001409
@    MULPOP   C       1.96; C   _1  0.11; C   _2  0.11; C   _1  0.49; C   _2  0.49; C       0.26; N       0.56; O   _1 -0.89; O   _2 -0.89; H   _1 -0.44; 
@             H   _2 -0.44; H   _1 -0.44; H   _2 -0.44; H      -0.44; 
 -----------------------------------------------------------------------------
  10  Screening settings (-IFTHRS, JTDIIS, DIFDEN, times)  -13   10    T  2.76D+01  2.76D+01
@ 10  -434.232422772       2.06D-04  -5.31D-08    16  11   3   2
      Virial theorem: -V/T =      2.001411
@    MULPOP   C       1.96; C   _1  0.11; C   _2  0.11; C   _1  0.49; C   _2  0.49; C       0.26; N       0.56; O   _1 -0.89; O   _2 -0.89; H   _1 -0.44; 
@             H   _2 -0.44; H   _1 -0.44; H   _2 -0.44; H      -0.44; 
 -----------------------------------------------------------------------------
  11  Screening settings (-IFTHRS, JTDIIS, DIFDEN, times)  -13   11    T  2.80D+01  2.80D+01
@ 11  -434.232422779       8.22D-05  -7.64D-09    16  11   3   2
      Virial theorem: -V/T =      2.001411
@    MULPOP   C       1.96; C   _1  0.11; C   _2  0.11; C   _1  0.49; C   _2  0.49; C       0.26; N       0.56; O   _1 -0.89; O   _2 -0.89; H   _1 -0.44; 
@             H   _2 -0.44; H   _1 -0.44; H   _2 -0.44; H      -0.44; 
 -----------------------------------------------------------------------------
  12  Screening settings (-IFTHRS, JTDIIS, DIFDEN, times)  -13   12    T  2.80D+01  2.80D+01
@ 12  -434.232422781       3.35D-05  -1.48D-09    16  11   3   2
      Virial theorem: -V/T =      2.001411
@    MULPOP   C       1.96; C   _1  0.11; C   _2  0.11; C   _1  0.49; C   _2  0.49; C       0.26; N       0.56; O   _1 -0.89; O   _2 -0.89; H   _1 -0.44; 
@             H   _2 -0.44; H   _1 -0.44; H   _2 -0.44; H      -0.44; 
 -----------------------------------------------------------------------------
  13  Screening settings (-IFTHRS, JTDIIS, DIFDEN, times)  -13   13    T  2.79D+01  2.79D+01
@ 13  -434.232422781       2.08D-05  -2.75D-10    16  11   3   2
      Virial theorem: -V/T =      2.001411
@    MULPOP   C       1.96; C   _1  0.11; C   _2  0.11; C   _1  0.49; C   _2  0.49; C       0.26; N       0.56; O   _1 -0.89; O   _2 -0.89; H   _1 -0.44; 
@             H   _2 -0.44; H   _1 -0.44; H   _2 -0.44; H      -0.44; 
 -----------------------------------------------------------------------------
  14  Screening settings (-IFTHRS, JTDIIS, DIFDEN, times)  -13   14    T  2.78D+01  2.78D+01
@ 14  -434.232422781       6.69D-06  -1.16D-10    16  11   3   2
      Virial theorem: -V/T =      2.001411
@    MULPOP   C       1.96; C   _1  0.11; C   _2  0.11; C   _1  0.49; C   _2  0.49; C       0.26; N       0.56; O   _1 -0.89; O   _2 -0.89; H   _1 -0.44; 
@             H   _2 -0.44; H   _1 -0.44; H   _2 -0.44; H      -0.44; 
 -----------------------------------------------------------------------------
  15  Screening settings (-IFTHRS, JTDIIS, DIFDEN, times)  -13   15    T  2.78D+01  2.78D+01
@ 15  -434.232422781       2.23D-06  -1.39D-11    16  11   3   2
      Virial theorem: -V/T =      2.001411
@    MULPOP   C       1.96; C   _1  0.11; C   _2  0.11; C   _1  0.49; C   _2  0.49; C       0.26; N       0.56; O   _1 -0.89; O   _2 -0.89; H   _1 -0.44; 
@             H   _2 -0.44; H   _1 -0.44; H   _2 -0.44; H      -0.44; 
 -----------------------------------------------------------------------------
  16  Screening settings (-IFTHRS, JTDIIS, DIFDEN, times)  -13   16    T  2.76D+01  2.76D+01
@ 16  -434.232422781       1.06D-06  -7.28D-12    16  11   3   2
      Virial theorem: -V/T =      2.001411
@    MULPOP   C       1.96; C   _1  0.11; C   _2  0.11; C   _1  0.49; C   _2  0.49; C       0.26; N       0.56; O   _1 -0.89; O   _2 -0.89; H   _1 -0.44; 
@             H   _2 -0.44; H   _1 -0.44; H   _2 -0.44; H      -0.44; 
 -----------------------------------------------------------------------------
  17  Screening settings (-IFTHRS, JTDIIS, DIFDEN, times)  -13   17    T  2.77D+01  2.77D+01
@ 17  -434.232422781       5.06D-07  -2.27D-12    16  11   3   2

@ *** DIIS converged in  17 iterations !
@     Converged SCF energy, gradient:   -434.232422781281    5.06D-07
    - total time used in SIRFCK :              0.00 seconds

 --- Writing SIRIFC interface file

 CPU and wall time for SCF :     474.562     474.661


 ----- Output from SIRIUS MP2 module -----

 Reference: H.J.Aa.Jensen, P.Jorgensen, H.Agren, and J.Olsen,
            J. Chem. Phys. 88, 3834 (1988); 89, 5354 (1988)

 Checking that the closed shell orbitals are canonical Hartree-Fock orbitals

    Number of electrons  :   64
    Closed shell orbitals:   16   11    3    2

 Generating Fock matrix

 Hartree-Fock electronic energy:        -851.494828472713
 Hartree-Fock total      energy:        -434.232422781269

 Hartree-Fock orbital energies, symmetry 1 ( A1 ),   16 occupied SCF orbitals

       -20.60881530   -15.85751095   -11.30902832   -11.28434497   -11.28398597
       -11.27336061    -1.61743743    -1.21004106    -1.11487050    -0.97323726
        -0.83047583    -0.78675756    -0.71032256    -0.65162731    -0.55456796
        -0.50420800     0.02639217     0.04398201     0.06207878     0.10448547
         0.13205682     0.13454488     0.15021919     0.15693094     0.17327384
         0.18054087     0.21617030     0.25909608     0.28801385     0.30573742
         0.31239267     0.34173529     0.35194942     0.36702698     0.37722709
         0.40016178     0.41208867     0.44691135     0.47399186     0.49139416
         0.52174642     0.56052212     0.58201060     0.58857984     0.63150506
         0.65653259     0.66068379     0.68099517     0.73231786     0.73705749
         0.75160873     0.83802960     0.88727706     0.93343949     0.96246223
         0.96671741     1.00932561     1.05951825     1.09440532     1.14532891
         1.28113960     1.36396688     1.38240033     1.44595942     1.50077563
         1.51584986     1.55717915     1.57204291     1.60459980     1.61028752
         1.68356690     1.73380910     1.73877722     1.76038215     1.88201378
         1.93780537     1.96161096     2.01268123     2.01940543     2.14106024
         2.16842154     2.23205869     2.32396557     2.37052338     2.44779285
         2.47210212     2.56861683     2.74647935     2.80186848     2.84510231
         2.90452459     2.97778500     3.04236277     3.17624082     3.27921540
         3.44767313     3.77401027     3.99216485     4.09528531     4.25842736
        19.81835368    20.35344295    20.47771491    20.62470096    23.35712841
        23.43094341    23.53661519    23.84132004    23.96274872    24.15299580
        27.12798796    31.32947315    35.83528672    39.74027096    39.86380179

 Hartree-Fock orbital energies, symmetry 2 ( B1 ),   11 occupied SCF orbitals

       -20.60886619   -11.28438891   -11.27343837    -1.40546571    -1.05596905
        -0.86960833    -0.73342576    -0.65630222    -0.62683119    -0.53204424
        -0.49118282     0.03598657     0.05993458     0.13031092     0.13284824
         0.15324995     0.17414585     0.18396925     0.21560892     0.26157486
         0.28925320     0.31363901     0.33307312     0.36493108     0.36940563
         0.39432415     0.42223646     0.43953046     0.47577525     0.57125901
         0.58106729     0.59560067     0.65020118     0.67103627     0.68246511
         0.70135696     0.75169167     0.76113112     0.82899626     0.84276965
         0.87256255     0.93994553     1.01604128     1.14276299     1.21303703
         1.25732370     1.30598245     1.42072413     1.43334000     1.48661454
         1.57488926     1.59524723     1.61732731     1.63842713     1.71995714
         1.76216910     1.77171217     1.80246948     1.89838812     1.92612754
         2.00831355     2.10407566     2.24091026     2.26784761     2.33660348
         2.35289048     2.39177653     2.53684292     2.60063275     2.72536034
         2.89855436     2.93478402     3.13474646     3.29599147     3.35157251
         3.41317787     3.76690962     3.87319217     4.25661450    20.31124909
        20.48967485    22.93476994    23.34868573    23.40752302    23.94015136
        24.12470967    24.31392216    31.45285743    35.58126502    39.66015739
        40.05321839

 Hartree-Fock orbital energies, symmetry 3 ( B2 ),    3 occupied SCF orbitals

        -0.72847903    -0.53520548    -0.37787365     0.02487383     0.10681464
         0.12899008     0.13915842     0.18271321     0.19764727     0.24849987
         0.31953318     0.34644205     0.37264180     0.44699649     0.53515912
         0.58868141     0.64244109     0.71842735     0.77873871     0.83873796
         0.87796735     0.92714662     0.92868200     0.99236356     1.14982667
         1.28485589     1.31693534     1.47032912     1.49690710     1.62568010
         1.67639689     1.71175104     1.85669340     1.90291881     1.98277902
         2.08266125     2.18045753     2.29449855     2.53401931     2.71262523
         3.67878454     3.78625101    22.55117172    22.70473527    22.83879419
        23.02919627    30.59658703    39.43202420

 Hartree-Fock orbital energies, symmetry 4 ( A2 ),    2 occupied SCF orbitals

        -0.45594649    -0.36942186     0.08645312     0.13134229     0.18563491
         0.30052784     0.41349178     0.49083523     0.54951236     0.66434941
         0.73615378     0.89378473     0.90309480     0.94649166     1.03291797
         1.10139787     1.21576585     1.25813751     1.34925319     1.48916746
         1.66368342     1.68824714     1.85455104     2.00633277     2.11261966
         2.22752136     2.36357898     2.47764357     2.61850376     3.67698960
         4.00879184    22.69260246    22.86008747    39.50636864

    E(LUMO) :     0.02487383   (in symmetry 3)
  - E(HOMO) :    -0.36942186   (in symmetry 4)
  --------------------------
    gap     :     0.39429569

---> (Re)generating AOTWOINT


     ************************************************************************
     ************************** Output from HERINT **************************
     ************************************************************************


 Threshold for neglecting two-electron integrals:  1.00D-12
 HERMIT - Number of two-electron integrals written:   204533118 ( 23.6% )
 HERMIT - Megabytes written:                           3122.232

  Time used in TWOINT     is      38.66 seconds

 2-el. integral transformation level 5: Total CPU and WALL times (sec)     406.219     409.121

 MP2 move   0.986925 electrons to unoccupied HF orbitals


@   Hartree-Fock total energy   :          -434.2324227813
@   + MP2 contribution          :            -1.7234155144
@   = MP2 second order energy   :          -435.9558382957

 Natural orbital occupation numbers, symmetry 1 (irrep A1 )
 Sum =    32.00680187; RHF =    32.00000000; Difference =     0.00680187

         1.99928949     1.99907338     1.99876126     1.99875518     1.99875078
         1.99874225     1.98706565     1.98413024     1.97972906     1.97309502
         1.96916060     1.96871761     1.96537102     1.96222394     1.95526686
         1.94848805     0.04235806     0.03122772     0.02573848     0.02361255
         0.01915736     0.01871092     0.01698203     0.01652551     0.01379473
         0.01267058     0.01164352     0.00981258     0.00849373     0.00792631
         0.00742644     0.00661309     0.00568541     0.00442435     0.00309532
         0.00294203     0.00268846     0.00258731     0.00217587     0.00193893
         0.00185969     0.00166895     0.00154217     0.00129966     0.00117977
         0.00116128     0.00105955     0.00095604     0.00071571     0.00064902
         0.00061167     0.00053787     0.00049830     0.00046246     0.00043959
         0.00041605     0.00039792     0.00038798     0.00037711     0.00035151
         0.00034040     0.00032127     0.00031182     0.00028753     0.00026534
         0.00025641     0.00022761     0.00020982     0.00019911     0.00019514
         0.00018606     0.00018284     0.00017394     0.00016967     0.00016648
         0.00016117     0.00015533     0.00014891     0.00014121     0.00013247
         0.00012416     0.00012249     0.00012113     0.00011057     0.00010504
         0.00009330     0.00007661     0.00007077     0.00005622     0.00005457
         0.00004978     0.00003949     0.00003312     0.00002668     0.00002014
         0.00001826     0.00001462     0.00001212     0.00001067     0.00000935
         0.00000872     0.00000812     0.00000660     0.00000303     0.00000263
         0.00000182     0.00000095     0.00000054     0.00000034     0.00000018
         0.00000016     0.00000000    -0.00000011    -0.00000051    -0.00005621

 Natural orbital occupation numbers, symmetry 2 (irrep B1 )
 Sum =    21.95460397; RHF =    22.00000000; Difference =    -0.04539603

         1.99928937     1.99875689     1.99875047     1.98421348     1.98001220
         1.97278918     1.96302459     1.96075573     1.95483700     1.95441620
         1.94658572     0.03854896     0.02543595     0.02358272     0.01906228
         0.01661000     0.01597252     0.01501703     0.01117655     0.01047072
         0.00913440     0.00770057     0.00569596     0.00539359     0.00507148
         0.00398833     0.00312629     0.00272206     0.00241687     0.00212286
         0.00175698     0.00161914     0.00151641     0.00131599     0.00116004
         0.00101282     0.00095613     0.00068825     0.00064219     0.00056708
         0.00049399     0.00043954     0.00042362     0.00037538     0.00035025
         0.00034197     0.00030357     0.00029179     0.00027017     0.00026147
         0.00023560     0.00021147     0.00019933     0.00018819     0.00018274
         0.00017805     0.00017079     0.00016901     0.00015987     0.00015499
         0.00014355     0.00013386     0.00012804     0.00012585     0.00011866
         0.00011049     0.00009584     0.00008895     0.00006650     0.00005648
         0.00004525     0.00003721     0.00003063     0.00002748     0.00002373
         0.00001497     0.00001441     0.00001139     0.00001050     0.00000861
         0.00000467     0.00000340     0.00000181     0.00000123     0.00000056
         0.00000025     0.00000014    -0.00000004    -0.00000024    -0.00000068
        -0.00001631

 Natural orbital occupation numbers, symmetry 3 (irrep B2 )
 Sum =     6.07696166; RHF =     6.00000000; Difference =     0.07696166

         1.95151221     1.94400971     1.90918642     0.10277331     0.06550575
         0.02944139     0.01037381     0.01007365     0.00867464     0.00801352
         0.00617998     0.00529318     0.00454202     0.00385526     0.00340600
         0.00304085     0.00148130     0.00140883     0.00100257     0.00088827
         0.00085243     0.00065756     0.00061841     0.00049611     0.00047394
         0.00041339     0.00033084     0.00029046     0.00025292     0.00023283
         0.00019732     0.00019522     0.00018964     0.00017656     0.00015390
         0.00012938     0.00012234     0.00011130     0.00010422     0.00008406
         0.00007969     0.00006002     0.00003408     0.00001919     0.00001035
         0.00000672     0.00000487     0.00000125

 Natural orbital occupation numbers, symmetry 4 (irrep A2 )
 Sum =     3.96163249; RHF =     4.00000000; Difference =    -0.03836751

         1.91738136     1.90823235     0.06605083     0.01490293     0.01038293
         0.00925265     0.00796491     0.00571076     0.00514927     0.00403749
         0.00353284     0.00156436     0.00120666     0.00092866     0.00077897
         0.00072857     0.00067065     0.00056185     0.00040753     0.00036971
         0.00034364     0.00029733     0.00021044     0.00019697     0.00015937
         0.00013225     0.00011640     0.00010381     0.00009334     0.00006910
         0.00005173     0.00002040     0.00001738     0.00000507

 Time used for MP2 natural orbitals :     437.984 CPU seconds,     440.894 wall seconds.

 CPU and wall time for MP2 :     437.984     440.894


        SIRIUS MCSCF optimization (SIROPT)
 ================================================


 Fock matrix screening setting for SIRCNO: IFTHRS =    9


 ----- Output from SIRIUS CI module (CICTL) -----




 2-el. integral transformation level 0: Total CPU and WALL times (sec)      99.125      99.156


 --- SIRCI.CIST1: plus combination of all degenerate
                 configurations is used as start vectors.


 (CIST1) 8 lowest diagonal elements:

 Element no. Config.no.    Active energy      Total energy

         1 :         67    -17.3897095025   -434.2143906384
         2 :         69    -17.0980644301   -433.9227455661
         3 :         81    -17.0980644301   -433.9227455661
         4 :         68    -17.0643249118   -433.8890060478
         5 :         74    -17.0643249118   -433.8890060478
         6 :         78    -16.9292107885   -433.7538919244
         7 :         96    -16.9292107885   -433.7538919244
         8 :         71    -16.8982223148   -433.7229034507


 Convergence threshold for CI optimization :     0.00000500



 *** Reached maximum number of CI iterations:    3
              1 CI roots are not converged.


@ Final CI energies and residuals in symmetry 1 (irrep A1 )
@    1     -434.262071920364747       4.93D-03

   --- OUTPUT FROM SIRCNO     Keyword = FD+NO 


 Occupations of CAS natural orbitals:

 Symmetry  1 ( irrep A1  in C2v )

   1.999862885

 Symmetry  2 ( irrep B1  in C2v )

   1.999861158

 Symmetry  3 ( irrep B2  in C2v )

   1.988232123   0.085629028

 Symmetry  4 ( irrep A2  in C2v )

   1.919077803   1.967920941   0.039416062


 --- MACRO ITERATION  1 ---
 --------------------------

 2-el. integral transformation level 3: Total CPU and WALL times (sec)     100.156     100.213

 Fock matrix screening setting for this macro iteration: 10^( -9)

 Total MCSCF energy       :          -434.262071919402047  (MACRO    1)

 - Nuclear repulsion      :           417.262405691443462
 - Inactive energy        :          -834.087086828151882
 - Active energy          :           -17.437390782693608

 Norm of total gradient   :             0.512825637312
 -    of CI gradient      :             0.009862531577
 -    of orbital gradient :             0.512730791698
      Virial theorem: -V/T =      2.000345
@    MULPOP   C       1.60; C   _1  0.25; C   _2  0.25; C   _1  0.46; C   _2  0.46; C       0.32; N       0.42; O   _1 -0.69; O   _2 -0.69; H   _1 -0.49; 
@             H   _2 -0.49; H   _1 -0.47; H   _2 -0.47; H      -0.47; 

 Residual norm when dim(red L) =   7
 NEO root     CSF        orbital          total
    1     0.04873046     0.02575026     0.05511564 converged

 (NEONEX) NEO vector is converged.

   --- OUTPUT FROM SIRCNO     Keyword = FD+NO 


 Occupations of CAS natural orbitals:

 Symmetry  1 ( irrep A1  in C2v )

   1.999870932

 Symmetry  2 ( irrep B1  in C2v )

   1.999619577

 Symmetry  3 ( irrep B2  in C2v )

   1.986803900   0.211541771

 Symmetry  4 ( irrep A2  in C2v )

   1.789892285   1.953393009   0.058878525


 --- MACRO ITERATION  2 ---
 --------------------------

 2-el. integral transformation level 3: Total CPU and WALL times (sec)     100.578     100.592

 Fock matrix screening setting for this macro iteration: 10^( -9)

 Total MCSCF energy       :          -434.269475309356494  (MACRO    2)

 - Nuclear repulsion      :           417.262405691443462
 - Inactive energy        :          -834.363292183306726
 - Active energy          :           -17.168588817493259

 Norm of total gradient   :             0.180008216133
 -    of CI gradient      :             0.144615748173
 -    of orbital gradient :             0.107187887636
      Virial theorem: -V/T =      2.001080
@    MULPOP   C       2.03; C   _1  0.10; C   _2  0.10; C   _1  0.46; C   _2  0.46; C       0.27; N       0.41; O   _1 -0.80; O   _2 -0.80; H   _1 -0.45; 
@             H   _2 -0.45; H   _1 -0.44; H   _2 -0.44; H      -0.44; 

 Residual norm when dim(red L) =   7
 NEO root     CSF        orbital          total
    1     0.01808752     0.01373089     0.02270894 converged

 (NEONEX) NEO vector is converged.

   --- OUTPUT FROM SIRCNO     Keyword = FD+NO 


 Occupations of CAS natural orbitals:

 Symmetry  1 ( irrep A1  in C2v )

   1.999869571

 Symmetry  2 ( irrep B1  in C2v )

   1.999479118

 Symmetry  3 ( irrep B2  in C2v )

   1.989340746   0.150766446

 Symmetry  4 ( irrep A2  in C2v )

   1.850442222   1.964100885   0.046001012


 --- MACRO ITERATION  3 ---
 --------------------------

 2-el. integral transformation level 3: Total CPU and WALL times (sec)     100.125     100.127

 Fock matrix screening setting for this macro iteration: 10^( -9)

 Total MCSCF energy       :          -434.283099943270656  (MACRO    3)

 - Nuclear repulsion      :           417.262405691443462
 - Inactive energy        :          -834.568683466015273
 - Active energy          :           -16.976822168698860

 Norm of total gradient   :             0.038827019213
 -    of CI gradient      :             0.027986366899
 -    of orbital gradient :             0.026912835020
      Virial theorem: -V/T =      2.001124
@    MULPOP   C       2.00; C   _1  0.10; C   _2  0.10; C   _1  0.46; C   _2  0.46; C       0.27; N       0.46; O   _1 -0.81; O   _2 -0.81; H   _1 -0.45; 
@             H   _2 -0.45; H   _1 -0.44; H   _2 -0.44; H      -0.44; 

 Residual norm when dim(red L) =  11
 NEO root     CSF        orbital          total
    1     0.00537840     0.00389910     0.00664305 converged

 (NEONEX) NEO vector is converged.

   --- OUTPUT FROM SIRCNO     Keyword = FD+NO 


 Occupations of CAS natural orbitals:

 Symmetry  1 ( irrep A1  in C2v )

   1.999729261

 Symmetry  2 ( irrep B1  in C2v )

   1.998251342

 Symmetry  3 ( irrep B2  in C2v )

   1.989066302   0.128836275

 Symmetry  4 ( irrep A2  in C2v )

   1.874167989   1.964722782   0.045226050


 --- MACRO ITERATION  4 ---
 --------------------------

 2-el. integral transformation level 3: Total CPU and WALL times (sec)     100.266     100.296

 Fock matrix screening setting for this macro iteration: 10^( -9)

 Total MCSCF energy       :          -434.283969737014559  (MACRO    4)

 - Nuclear repulsion      :           417.262405691443462
 - Inactive energy        :          -834.060337627727563
 - Active energy          :           -17.486037800730436

 Norm of total gradient   :             0.032375953849
 -    of CI gradient      :             0.031893692699
 -    of orbital gradient :             0.005567293208
      Virial theorem: -V/T =      2.001146
@    MULPOP   C       2.01; C   _1  0.10; C   _2  0.10; C   _1  0.46; C   _2  0.46; C       0.27; N       0.47; O   _1 -0.82; O   _2 -0.82; H   _1 -0.45; 
@             H   _2 -0.45; H   _1 -0.44; H   _2 -0.44; H      -0.45; 

 Residual norm when dim(red L) =  12
 NEO root     CSF        orbital          total
    1     0.00364471     0.00271645     0.00454566 converged

 (NEONEX) NEO vector is converged.

   --- OUTPUT FROM SIRCNO     Keyword = FD+NO 


 Occupations of CAS natural orbitals:

 Symmetry  1 ( irrep A1  in C2v )

   1.999593269

 Symmetry  2 ( irrep B1  in C2v )

   1.999381720

 Symmetry  3 ( irrep B2  in C2v )

   1.989019210   0.125381577

 Symmetry  4 ( irrep A2  in C2v )

   1.876789921   1.964367149   0.045467155


 --- MACRO ITERATION  5 ---
 --------------------------

 2-el. integral transformation level 3: Total CPU and WALL times (sec)     101.016     101.059

 Fock matrix screening setting for this macro iteration: 10^( -9)

 Total MCSCF energy       :          -434.284217063989558  (MACRO    5)

 - Nuclear repulsion      :           417.262405691443462
 - Inactive energy        :          -832.890932613585846
 - Active energy          :           -18.655690141847185

 Norm of total gradient   :             0.014856450479
 -    of CI gradient      :             0.014569682089
 -    of orbital gradient :             0.002904906995
      Virial theorem: -V/T =      2.001141
@    MULPOP   C       2.01; C   _1  0.10; C   _2  0.10; C   _1  0.46; C   _2  0.46; C       0.27; N       0.47; O   _1 -0.82; O   _2 -0.82; H   _1 -0.45; 
@             H   _2 -0.45; H   _1 -0.44; H   _2 -0.44; H      -0.45; 

 (SIRNEO) iteration (  5,  6)
 Micro iteration termination criterion met, EVAL(ISTATE+1) = -5.34D-05

   --- OUTPUT FROM SIRCNO     Keyword = FD+NO 


 Occupations of CAS natural orbitals:

 Symmetry  1 ( irrep A1  in C2v )

   1.999895477

 Symmetry  2 ( irrep B1  in C2v )

   1.999276508

 Symmetry  3 ( irrep B2  in C2v )

   1.988826849   0.127330696

 Symmetry  4 ( irrep A2  in C2v )

   1.874732633   1.963388429   0.046549407


 --- MACRO ITERATION  6 ---
 --------------------------

 2-el. integral transformation level 3: Total CPU and WALL times (sec)     101.219     101.238

 Fock matrix screening setting for this macro iteration: 10^( -9)

 Total MCSCF energy       :          -434.284261303511414  (MACRO    6)

 - Nuclear repulsion      :           417.262405691443462
 - Inactive energy        :          -832.205465207791690
 - Active energy          :           -19.341201787163207

 Norm of total gradient   :             0.025642532266
 -    of CI gradient      :             0.019871446979
 -    of orbital gradient :             0.016206944684
      Virial theorem: -V/T =      2.001131
@    MULPOP   C       2.00; C   _1  0.11; C   _2  0.11; C   _1  0.46; C   _2  0.46; C       0.27; N       0.47; O   _1 -0.82; O   _2 -0.82; H   _1 -0.45; 
@             H   _2 -0.45; H   _1 -0.44; H   _2 -0.44; H      -0.45; 

 Residual norm when dim(red L) =  10
 NEO root     CSF        orbital          total
    1     0.00318185     0.00153501     0.00353276 converged

 (NEONEX) NEO vector is converged.

   --- OUTPUT FROM SIRCNO     Keyword = FD+NO 


 Occupations of CAS natural orbitals:

 Symmetry  1 ( irrep A1  in C2v )

   1.999619995

 Symmetry  2 ( irrep B1  in C2v )

   1.999175086

 Symmetry  3 ( irrep B2  in C2v )

   1.989050871   0.125346182

 Symmetry  4 ( irrep A2  in C2v )

   1.877054171   1.964234510   0.045519186


 --- MACRO ITERATION  7 ---
 --------------------------

 2-el. integral transformation level 3: Total CPU and WALL times (sec)     100.891     100.908

 Fock matrix screening setting for this macro iteration: 10^( -9)

 Total MCSCF energy       :          -434.284529370995756  (MACRO    7)

 - Nuclear repulsion      :           417.262405691443462
 - Inactive energy        :          -832.548708140669305
 - Active energy          :           -18.998226921769884

 Norm of total gradient   :             0.006551827201
 -    of CI gradient      :             0.006261797331
 -    of orbital gradient :             0.001927779513
      Virial theorem: -V/T =      2.001144
@    MULPOP   C       2.01; C   _1  0.10; C   _2  0.10; C   _1  0.46; C   _2  0.46; C       0.27; N       0.47; O   _1 -0.82; O   _2 -0.82; H   _1 -0.45; 
@             H   _2 -0.45; H   _1 -0.44; H   _2 -0.44; H      -0.45; 

 Residual norm when dim(red L) =  11
 NEO root     CSF        orbital          total
    1     0.00097142     0.00051726     0.00110055 converged

 (NEONEX) NEO vector is converged.

   --- OUTPUT FROM SIRCNO     Keyword = FD+NO 


 Occupations of CAS natural orbitals:

 Symmetry  1 ( irrep A1  in C2v )

   1.998943964

 Symmetry  2 ( irrep B1  in C2v )

   1.999309272

 Symmetry  3 ( irrep B2  in C2v )

   1.989001172   0.126495284

 Symmetry  4 ( irrep A2  in C2v )

   1.876441334   1.963848823   0.045960150


 --- MACRO ITERATION  8 ---
 --------------------------

 2-el. integral transformation level 3: Total CPU and WALL times (sec)     101.188     101.256

 Fock matrix screening setting for this macro iteration: 10^( -9)

 Total MCSCF energy       :          -434.284850637786803  (MACRO    8)

 - Nuclear repulsion      :           417.262405691443462
 - Inactive energy        :          -833.310231439772906
 - Active energy          :           -18.237024889457370

 Norm of total gradient   :             0.004735157352
 -    of CI gradient      :             0.003855170195
 -    of orbital gradient :             0.002749432290
      Virial theorem: -V/T =      2.001139
@    MULPOP   C       2.01; C   _1  0.10; C   _2  0.10; C   _1  0.46; C   _2  0.46; C       0.27; N       0.47; O   _1 -0.82; O   _2 -0.82; H   _1 -0.45; 
@             H   _2 -0.45; H   _1 -0.44; H   _2 -0.44; H      -0.45; 

 Residual norm when dim(red L) =  11
 NEO root     CSF        orbital          total
    1     0.00068853     0.00042141     0.00080725 converged

 (NEONEX) NEO vector is converged.

   --- OUTPUT FROM SIRCNO     Keyword = FD+NO 


 Occupations of CAS natural orbitals:

 Symmetry  1 ( irrep A1  in C2v )

   1.998504817

 Symmetry  2 ( irrep B1  in C2v )

   1.999526703

 Symmetry  3 ( irrep B2  in C2v )

   1.988994350   0.125656243

 Symmetry  4 ( irrep A2  in C2v )

   1.877481663   1.964015019   0.045821204


 --- MACRO ITERATION  9 ---
 --------------------------

 2-el. integral transformation level 3: Total CPU and WALL times (sec)     101.766     101.767

 Fock matrix screening setting for this macro iteration: 10^( -9)

 Total MCSCF energy       :          -434.284914373566778  (MACRO    9)

 - Nuclear repulsion      :           417.262405691443462
 - Inactive energy        :          -833.349259978326018
 - Active energy          :           -18.198060086684233

 Norm of total gradient   :             0.006325298519
 -    of CI gradient      :             0.006262286391
 -    of orbital gradient :             0.000890601210
      Virial theorem: -V/T =      2.001140
@    MULPOP   C       2.01; C   _1  0.10; C   _2  0.10; C   _1  0.46; C   _2  0.46; C       0.27; N       0.47; O   _1 -0.82; O   _2 -0.82; H   _1 -0.45; 
@             H   _2 -0.45; H   _1 -0.44; H   _2 -0.44; H      -0.45; 

 (SIRNEO) iteration (  9, 24)
 maximum number of microiterations reached

   --- OUTPUT FROM SIRCNO     Keyword = FD+NO 


 Occupations of CAS natural orbitals:

 Symmetry  1 ( irrep A1  in C2v )

   1.998725481

 Symmetry  2 ( irrep B1  in C2v )

   1.999490837

 Symmetry  3 ( irrep B2  in C2v )

   1.988981849   0.125887868

 Symmetry  4 ( irrep A2  in C2v )

   1.877060265   1.963927843   0.045925856


 --- MACRO ITERATION 10 ---
 --------------------------

 2-el. integral transformation level 3: Total CPU and WALL times (sec)     100.484     100.525

 Fock matrix screening setting for this macro iteration: 10^( -9)

 Total MCSCF energy       :          -434.284929322642142  (MACRO   10)

 - Nuclear repulsion      :           417.262405691443462
 - Inactive energy        :          -833.343733888868428
 - Active energy          :           -18.203601125217148

 Norm of total gradient   :             0.000355540387
 -    of CI gradient      :             0.000347102786
 -    of orbital gradient :             0.000076997552
      Virial theorem: -V/T =      2.001140
@    MULPOP   C       2.01; C   _1  0.10; C   _2  0.10; C   _1  0.46; C   _2  0.46; C       0.27; N       0.47; O   _1 -0.82; O   _2 -0.82; H   _1 -0.45; 
@             H   _2 -0.45; H   _1 -0.44; H   _2 -0.44; H      -0.45; 

 Residual norm when dim(red L) =  15
 NEO root     CSF        orbital          total
    1     0.00000566     0.00000752     0.00000941 converged

 (NEONEX) NEO vector is converged.

   --- OUTPUT FROM SIRCNO     Keyword = FD+NO 


 Occupations of CAS natural orbitals:

 Symmetry  1 ( irrep A1  in C2v )

   1.998738599

 Symmetry  2 ( irrep B1  in C2v )

   1.999489061

 Symmetry  3 ( irrep B2  in C2v )

   1.988981493   0.125889038

 Symmetry  4 ( irrep A2  in C2v )

   1.877047968   1.963928253   0.045925590


 --- MACRO ITERATION 11 ---
 --------------------------

 2-el. integral transformation level 3: Total CPU and WALL times (sec)     100.109     100.112

 Fock matrix screening setting for this macro iteration: 10^( -9)

 Total MCSCF energy       :          -434.284929431757632  (MACRO   11)

 - Nuclear repulsion      :           417.262405691443462
 - Inactive energy        :          -833.343045128289987
 - Active energy          :           -18.204289994911107

 Norm of total gradient   :             0.000010894031
 -    of CI gradient      :             0.000007810481
 -    of orbital gradient :             0.000007594491
      Virial theorem: -V/T =      2.001140
@    MULPOP   C       2.01; C   _1  0.10; C   _2  0.10; C   _1  0.46; C   _2  0.46; C       0.27; N       0.47; O   _1 -0.82; O   _2 -0.82; H   _1 -0.45; 
@             H   _2 -0.45; H   _1 -0.44; H   _2 -0.44; H      -0.45; 

 Residual norm when dim(red L) =   4
 NEO root     CSF        orbital          total
    1     0.00000204     0.00000310     0.00000371 converged

 (NEONEX) NEO vector is converged.

   --- OUTPUT FROM SIRCNO     Keyword = FD+NO 


 Occupations of CAS natural orbitals:

[...]

 GP * SOLUTION vector at frequency     0.00000 a.u.
 after   12 linear transformations is      6.99705740D+03
 INERTIA (POS,ZER,NEG) of reduced matrix is   23    0    1
 Determinant of reduced matrix is -6.66 * 10 **-15.0

       No.  Residual tot.,    conf., and orb.    Bnorm      Frequency 
      ----------------------------------------------------------------
         1    4.98763D-01  6.66D-02  4.94D-01  1.51D+02    0.00000D+00

 ** RSPCTL MICROITERATION NUMBER   12

 *** INFO, negative eigenvalues in reduced matrix. Symmetry  4,  triplet       F Dimension of reduced matrix =    26

 GP * SOLUTION vector at frequency     0.00000 a.u.
 after   13 linear transformations is      6.99864493D+03
 INERTIA (POS,ZER,NEG) of reduced matrix is   25    0    1
 Determinant of reduced matrix is -6.00 * 10 **-18.0

       No.  Residual tot.,    conf., and orb.    Bnorm      Frequency 
      ----------------------------------------------------------------
         1    2.22041D+00  4.68D-01  2.17D+00  2.53D+02    0.00000D+00

 ** RSPCTL MICROITERATION NUMBER   13

 *** INFO, negative eigenvalues in reduced matrix. Symmetry  4,  triplet       F Dimension of reduced matrix =    28

 GP * SOLUTION vector at frequency     0.00000 a.u.
 after   14 linear transformations is      7.00096352D+03
 INERTIA (POS,ZER,NEG) of reduced matrix is   27    0    1
 Determinant of reduced matrix is -6.89 * 10 **-20.0

       No.  Residual tot.,    conf., and orb.    Bnorm      Frequency 
      ----------------------------------------------------------------
         1    1.86944D+00  1.09D+00  1.52D+00  4.63D+02    0.00000D+00

 ** RSPCTL MICROITERATION NUMBER   14

 *** INFO, negative eigenvalues in reduced matrix. Symmetry  4,  triplet       F Dimension of reduced matrix =    30

 GP * SOLUTION vector at frequency     0.00000 a.u.
 after   15 linear transformations is      7.00238385D+03
 INERTIA (POS,ZER,NEG) of reduced matrix is   29    0    1
 Determinant of reduced matrix is -1.07 * 10 **-21.0

       No.  Residual tot.,    conf., and orb.    Bnorm      Frequency 
      ----------------------------------------------------------------
         1    1.79987D+00  1.50D+00  9.88D-01  6.04D+02    0.00000D+00

 ** RSPCTL MICROITERATION NUMBER   15

 *** INFO, negative eigenvalues in reduced matrix. Symmetry  4,  triplet       F Dimension of reduced matrix =    32

 GP * SOLUTION vector at frequency     0.00000 a.u.
 after   16 linear transformations is      7.00446209D+03
 INERTIA (POS,ZER,NEG) of reduced matrix is   31    0    1
 Determinant of reduced matrix is -1.25 * 10 **-21.0

       No.  Residual tot.,    conf., and orb.    Bnorm      Frequency 
      ----------------------------------------------------------------
         1    1.42980D+00  1.14D-01  1.43D+00  7.97D+02    0.00000D+00
RSPORT:    1 out of    1 new trial vectors linear dependent

 *** MICROITERATIONS STOPPED DUE TO LINEAR DEPENDENCE BETWEEN NEW TRIAL VECTORS

 *** WARNING : REQUESTED    1 SOLUTION VECTORS NOT CONVERGED

 Convergence of RSP solution vectors, threshold = 1.00D-03
 ---------------------------------------------------------------
 (dimension of paired reduced space:   32)
 RSP solution vector no.    1; norm of residual   1.79D-03

 *** RSPCTL WARNING-MICROITERATIONS STOPPED BECAUSE
     OF LINEAR DEPENDENCE BETWEEN NEW TRIAL VECTORS
    XDIPLEN     YDIPLEN      freq1     freq2                Norm
 ---------------------------------------------------------------
                          0.058400 -0.058400        796.81380052


 Perturbation symmetry.     KSYMOP:       1
 Perturbation spin symmetry.TRPLET:       F
 Orbital variables.         KZWOPT:    2762
 Configuration variables.   KZCONF:     115
 Total number of variables. KZVAR :    2877


 CRLRV2 -- linear response calc for sym:  1
 CRLRV2 -- operator label1: YDIPLEN 
 CRLRV2 -- operator label2: YDIPLEN 
 CRLRV2 -- freqr1 :   5.840000D-02
 CRLRV2 -- freqr2 :   5.840000D-02



 ---  SOLVING SETS OF LINEAR EQUATIONS FOR LINEAR RESPONSE PROPERTIES ---

 Operator symmetry = 1  ( A1 ); triplet =   F


 ** RSPCTL MICROITERATION NUMBER    1

       No.  Residual tot.,    conf., and orb.    Bnorm      Frequency 
      ----------------------------------------------------------------
         1    1.62298D+01  1.16D+00  1.62D+01  8.61D+01    1.16800D-01

 ** RSPCTL MICROITERATION NUMBER    2

       No.  Residual tot.,    conf., and orb.    Bnorm      Frequency 
      ----------------------------------------------------------------
         1    7.47280D+00  1.19D+00  7.38D+00  9.25D+01    1.16800D-01

 ** RSPCTL MICROITERATION NUMBER    3

       No.  Residual tot.,    conf., and orb.    Bnorm      Frequency 
      ----------------------------------------------------------------
         1    3.00466D+00  1.43D+00  2.64D+00  9.47D+01    1.16800D-01

 ** RSPCTL MICROITERATION NUMBER    4

       No.  Residual tot.,    conf., and orb.    Bnorm      Frequency 
      ----------------------------------------------------------------
         1    1.87738D+00  1.58D+00  1.02D+00  9.55D+01    1.16800D-01

 ** RSPCTL MICROITERATION NUMBER    5

       No.  Residual tot.,    conf., and orb.    Bnorm      Frequency 
      ----------------------------------------------------------------
         1    1.73114D+00  5.69D-01  1.63D+00  9.59D+01    1.16800D-01

 ** RSPCTL MICROITERATION NUMBER    6

       No.  Residual tot.,    conf., and orb.    Bnorm      Frequency 
      ----------------------------------------------------------------
         1    1.54625D+00  7.42D-01  1.36D+00  9.67D+01    1.16800D-01

 ** RSPCTL MICROITERATION NUMBER    7

       No.  Residual tot.,    conf., and orb.    Bnorm      Frequency 
      ----------------------------------------------------------------
         1    9.81263D-01  8.31D-01  5.22D-01  9.74D+01    1.16800D-01

 ** RSPCTL MICROITERATION NUMBER    8

       No.  Residual tot.,    conf., and orb.    Bnorm      Frequency 
      ----------------------------------------------------------------
         1    7.26536D-01  4.10D-01  6.00D-01  9.76D+01    1.16800D-01

 ** RSPCTL MICROITERATION NUMBER    9

       No.  Residual tot.,    conf., and orb.    Bnorm      Frequency 
      ----------------------------------------------------------------
         1    4.67146D-01  4.22D-01  2.01D-01  9.80D+01    1.16800D-01

 ** RSPCTL MICROITERATION NUMBER   10

       No.  Residual tot.,    conf., and orb.    Bnorm      Frequency 
      ----------------------------------------------------------------
         1    3.45823D-01  7.51D-02  3.38D-01  9.85D+01    1.16800D-01

 ** RSPCTL MICROITERATION NUMBER   11

       No.  Residual tot.,    conf., and orb.    Bnorm      Frequency 
      ----------------------------------------------------------------
         1    1.53524D-01  8.95D-02  1.25D-01  9.86D+01    1.16800D-01

 ** RSPCTL MICROITERATION NUMBER   12

       No.  Residual tot.,    conf., and orb.    Bnorm      Frequency 
      ----------------------------------------------------------------
         1    9.67501D-02  9.21D-02  2.96D-02  9.86D+01    1.16800D-01

 *** THE REQUESTED    1 SOLUTION VECTORS CONVERGED

 Convergence of RSP solution vectors, threshold = 1.00D-03
 ---------------------------------------------------------------
 (dimension of paired reduced space:   26)
 RSP solution vector no.    1; norm of residual   9.81D-04

 *** RSPCTL MICROITERATIONS CONVERGED
    YDIPLEN     YDIPLEN      freq1     freq2                Norm
 ---------------------------------------------------------------
                          0.058400  0.058400         98.63503299
  Time used in CRVEC2     is       2 hours 30 minutes 21 seconds


 ----- CALCULATING CONTRIBUTIONS TO SECOND HYPERPOLARIZABILITY -----


   Contribution                Term         Accumulated
 ------------------------------------------------------
 Na T[4] Nb Nc Nd    89863.61947956      89863.61947956
 Na T[3] Nx Nyz    -168269.67321817     -78406.05373861
 Na X[3] Ny Nz       69091.97429161      -9314.07944700
 Nx A[3] Ny Nz       23030.65809720      13716.57865021
 Na X[2] Nyz        -24249.38176064     -10532.80311043
 Nx A[2] Nyz        -48202.59446170     -58735.39757213

@ Cubic response function value in a.u. for
@ A operator, symmetry, frequency:   ZDIPLEN    1 -0.058400
@ B operator, symmetry, frequency:   ZDIPLEN    1  0.058400
@ C operator, symmetry, frequency:   ZDIPLEN    1 -0.058400
@ D operator, symmetry, frequency:   ZDIPLEN    1  0.058400

@ << A; B, C, D >>  =      -58735.39757213



   Contribution                Term         Accumulated
 ------------------------------------------------------
 Na T[4] Nb Nc Nd   204973.01321223     204973.01321223
 Na T[3] Nx Nyz   -2269468.18019523   -2064495.16698301
 Na X[3] Ny Nz       70154.43036435   -1994340.73661865
 Nx A[3] Ny Nz       16794.51763123   -1977546.21898742
 Na X[2] Nyz        568686.24555192   -1408859.97343550
 Nx A[2] Nyz       -137729.90752269   -1546589.88095819

@ Cubic response function value in a.u. for
@ A operator, symmetry, frequency:   XDIPLEN    2 -0.058400
@ B operator, symmetry, frequency:   XDIPLEN    2  0.058400
@ C operator, symmetry, frequency:   ZDIPLEN    1 -0.058400
@ D operator, symmetry, frequency:   ZDIPLEN    1  0.058400

@ << A; B, C, D >>  =    -1546589.88095819



   Contribution                Term         Accumulated
 ------------------------------------------------------
 Na T[4] Nb Nc Nd    -3927.58653807      -3927.58653807
 Na T[3] Nx Nyz      -1354.39510948      -5281.98164755
 Na X[3] Ny Nz        7343.13466314       2061.15301559
 Nx A[3] Ny Nz        2565.63621826       4626.78923385
 Na X[2] Nyz         -1768.94710593       2857.84212792
 Nx A[2] Nyz         -6994.52346445      -4136.68133653

@ Cubic response function value in a.u. for
@ A operator, symmetry, frequency:   YDIPLEN    3 -0.058400
@ B operator, symmetry, frequency:   YDIPLEN    3  0.058400
@ C operator, symmetry, frequency:   ZDIPLEN    1 -0.058400
@ D operator, symmetry, frequency:   ZDIPLEN    1  0.058400

@ << A; B, C, D >>  =       -4136.68133653



   Contribution                Term         Accumulated
 ------------------------------------------------------
 Na T[4] Nb Nc Nd   185100.25100408     185100.25100408
 Na T[3] Nx Nyz    -994377.74096931    -809277.48996523
 Na X[3] Ny Nz       67741.41039914    -741536.07956609
 Nx A[3] Ny Nz       15973.24582113    -725562.83374495
 Na X[2] Nyz        181836.41142391    -543726.42232105
 Nx A[2] Nyz        -55309.47452453    -599035.89684557

@ Cubic response function value in a.u. for
@ A operator, symmetry, frequency:   XDIPLEN    2 -0.058400
@ B operator, symmetry, frequency:   ZDIPLEN    1  0.058400
@ C operator, symmetry, frequency:   XDIPLEN    2 -0.058400
@ D operator, symmetry, frequency:   ZDIPLEN    1  0.058400

@ << A; B, C, D >>  =     -599035.89684557



   Contribution                Term         Accumulated
 ------------------------------------------------------
 Na T[4] Nb Nc Nd    -3806.74977205      -3806.74977205
 Na T[3] Nx Nyz      -1318.13644873      -5124.88622078
 Na X[3] Ny Nz        7060.29409029       1935.40786951
 Nx A[3] Ny Nz        2376.18653558       4311.59440509
 Na X[2] Nyz         -1634.07533405       2677.51907104
 Nx A[2] Nyz         -6508.63535501      -3831.11628397

@ Cubic response function value in a.u. for
@ A operator, symmetry, frequency:   YDIPLEN    3 -0.058400
@ B operator, symmetry, frequency:   ZDIPLEN    1  0.058400
@ C operator, symmetry, frequency:   YDIPLEN    3 -0.058400
@ D operator, symmetry, frequency:   ZDIPLEN    1  0.058400

@ << A; B, C, D >>  =       -3831.11628397



   Contribution                Term         Accumulated
 ------------------------------------------------------
 Na T[4] Nb Nc Nd   224707.61409055     224707.61409055
 Na T[3] Nx Nyz   -1000711.39018210    -776003.77609156
 Na X[3] Ny Nz       81168.28798342    -694835.48810813
 Nx A[3] Ny Nz       33663.32030639    -661172.16780174
 Na X[2] Nyz        -83986.58808682    -745158.75588856
 Nx A[2] Nyz        146208.63895787    -598950.11693069

@ Cubic response function value in a.u. for
@ A operator, symmetry, frequency:   ZDIPLEN    1 -0.058400
@ B operator, symmetry, frequency:   XDIPLEN    2  0.058400
@ C operator, symmetry, frequency:   ZDIPLEN    1 -0.058400
@ D operator, symmetry, frequency:   XDIPLEN    2  0.058400

@ << A; B, C, D >>  =     -598950.11693069



   Contribution                Term         Accumulated
 ------------------------------------------------------
 Na T[4] Nb Nc Nd 11763495.34290193   11763495.34290193
 Na T[3] Nx Nyz  -12494644.95625310    -731149.61335117
 Na X[3] Ny Nz      875396.49456668     144246.88121551
 Nx A[3] Ny Nz      291798.83152223     436045.71273774
 Na X[2] Nyz        116261.79312103     552307.50585877
 Nx A[2] Nyz       -383238.62944280     169068.87641597

@ Cubic response function value in a.u. for
@ A operator, symmetry, frequency:   XDIPLEN    2 -0.058400
@ B operator, symmetry, frequency:   XDIPLEN    2  0.058400
@ C operator, symmetry, frequency:   XDIPLEN    2 -0.058400
@ D operator, symmetry, frequency:   XDIPLEN    2  0.058400

@ << A; B, C, D >>  =      169068.87641597


 WARNING: Solution vector on RSPVEC converged to  1.79D-03
 WARNING: which is less than desired convergence  1.00D-03

 @WARNING---- Response labels YDIPLEN  XDIPLEN  with frequencies   0.05840 -0.05840
 and symmetries    3   2 not converged on file RSPVEC


   Contribution                Term         Accumulated
 ------------------------------------------------------
 Na T[4] Nb Nc Nd    -1765.70212906      -1765.70212906
 Na T[3] Nx Nyz      -3330.15712945      -5095.85925851
 Na X[3] Ny Nz        9381.57415173       4285.71489322
 Nx A[3] Ny Nz        1518.19088878       5803.90578200
 Na X[2] Nyz         -1529.56506459       4274.34071742
 Nx A[2] Nyz         -8010.79318713      -3736.45246972

@ Cubic response function value in a.u. for
@ A operator, symmetry, frequency:   YDIPLEN    3 -0.058400
@ B operator, symmetry, frequency:   YDIPLEN    3  0.058400
@ C operator, symmetry, frequency:   XDIPLEN    2 -0.058400
@ D operator, symmetry, frequency:   XDIPLEN    2  0.058400

@ << A; B, C, D >>  =       -3736.45246972


 WARNING: Solution vector on RSPVEC converged to  1.79D-03
 WARNING: which is less than desired convergence  1.00D-03

 @WARNING---- Response labels XDIPLEN  YDIPLEN  with frequencies   0.05840 -0.05840
 and symmetries    2   3 not converged on file RSPVEC

 WARNING: Solution vector on RSPVEC converged to  1.79D-03
 WARNING: which is less than desired convergence  1.00D-03

 @WARNING---- Response labels YDIPLEN  XDIPLEN  with frequencies  -0.05840  0.05840
 and symmetries    3   2 not converged on file RSPVEC


   Contribution                Term         Accumulated
 ------------------------------------------------------
 Na T[4] Nb Nc Nd    -1705.79325630      -1705.79325630
 Na T[3] Nx Nyz      -4073.61781267      -5779.41106897
 Na X[3] Ny Nz        8931.91666735       3152.50559838
 Nx A[3] Ny Nz        1184.66327325       4337.16887163
 Na X[2] Nyz          -431.86366971       3905.30520192
 Nx A[2] Nyz         -6008.93229131      -2103.62708939

@ Cubic response function value in a.u. for
@ A operator, symmetry, frequency:   YDIPLEN    3 -0.058400
@ B operator, symmetry, frequency:   XDIPLEN    2  0.058400
@ C operator, symmetry, frequency:   YDIPLEN    3 -0.058400
@ D operator, symmetry, frequency:   XDIPLEN    2  0.058400

@ << A; B, C, D >>  =       -2103.62708939



   Contribution                Term         Accumulated
 ------------------------------------------------------
 Na T[4] Nb Nc Nd     -136.67122314       -136.67122314
 Na T[3] Nx Nyz       1145.59185224       1008.92062910
 Na X[3] Ny Nz         238.36174462       1247.28237372
 Nx A[3] Ny Nz          56.69874273       1303.98111645
 Na X[2] Nyz         -3496.12610748      -2192.14499103
 Nx A[2] Nyz         -1645.09207581      -3837.23706684

@ Cubic response function value in a.u. for
@ A operator, symmetry, frequency:   ZDIPLEN    1 -0.058400
@ B operator, symmetry, frequency:   YDIPLEN    3  0.058400
@ C operator, symmetry, frequency:   ZDIPLEN    1 -0.058400
@ D operator, symmetry, frequency:   YDIPLEN    3  0.058400

@ << A; B, C, D >>  =       -3837.23706684


 WARNING: Solution vector on RSPVEC converged to  1.79D-03
 WARNING: which is less than desired convergence  1.00D-03

 @WARNING---- Response labels YDIPLEN  XDIPLEN  with frequencies   0.05840 -0.05840
 and symmetries    3   2 not converged on file RSPVEC

 WARNING: Solution vector on RSPVEC converged to  1.79D-03
 WARNING: which is less than desired convergence  1.00D-03

 @WARNING---- Response labels XDIPLEN  YDIPLEN  with frequencies  -0.05840  0.05840
 and symmetries    2   3 not converged on file RSPVEC


   Contribution                Term         Accumulated
 ------------------------------------------------------
 Na T[4] Nb Nc Nd     4249.94414609       4249.94414609
 Na T[3] Nx Nyz       7952.44901595      12202.39316203
 Na X[3] Ny Nz       -5082.91048245       7119.48267958
 Nx A[3] Ny Nz          98.33878838       7217.82146797
 Na X[2] Nyz         -7403.35082152       -185.52935355
 Nx A[2] Nyz         -1899.05702851      -2084.58638206

@ Cubic response function value in a.u. for
@ A operator, symmetry, frequency:   XDIPLEN    2 -0.058400
@ B operator, symmetry, frequency:   YDIPLEN    3  0.058400
@ C operator, symmetry, frequency:   XDIPLEN    2 -0.058400
@ D operator, symmetry, frequency:   YDIPLEN    3  0.058400

@ << A; B, C, D >>  =       -2084.58638206



   Contribution                Term         Accumulated
 ------------------------------------------------------
 Na T[4] Nb Nc Nd     -502.38919325       -502.38919325
 Na T[3] Nx Nyz       2244.54319847       1742.15400522
 Na X[3] Ny Nz        1450.16534059       3192.31934581
 Nx A[3] Ny Nz         483.38844686       3675.70779268
 Na X[2] Nyz         -6659.69769598      -2983.98990331
 Nx A[2] Nyz         -6692.84789079      -9676.83779409

@ Cubic response function value in a.u. for
@ A operator, symmetry, frequency:   YDIPLEN    3 -0.058400
@ B operator, symmetry, frequency:   YDIPLEN    3  0.058400
@ C operator, symmetry, frequency:   YDIPLEN    3 -0.058400
@ D operator, symmetry, frequency:   YDIPLEN    3  0.058400

@ << A; B, C, D >>  =       -9676.83779409



  Summary of gamma values for a set of frequencies
 -------------------------------------------------

@ B-freq:  0.058400
@ C-freq: -0.058400
@ D-freq:  0.058400

@ gamma(X;X,X,X)    -169068.8764
@ gamma(X;X,Y,Y)       3736.4525
@ gamma(X;Y,Y,X)       3736.4525
@ gamma(X;Y,X,Y)       2084.5864
@ gamma(X;X,Z,Z)    1546589.8810
@ gamma(X;Z,Z,X)    1546589.8810
@ gamma(X;Z,X,Z)     599035.8968
@ gamma(Y;Y,X,X)       3736.4525
@ gamma(Y;X,X,Y)       3736.4525
@ gamma(Y;X,Y,X)       2103.6271
@ gamma(Y;Y,Y,Y)       9676.8378
@ gamma(Y;Y,Z,Z)       4136.6813
@ gamma(Y;Z,Z,Y)       4136.6813
@ gamma(Y;Z,Y,Z)       3831.1163
@ gamma(Z;Z,X,X)    1546589.8810
@ gamma(Z;X,X,Z)    1546589.8810
@ gamma(Z;X,Z,X)     598950.1169
@ gamma(Z;Z,Y,Y)       4136.6813
@ gamma(Z;Y,Y,Z)       4136.6813
@ gamma(Z;Y,Z,Y)       3837.2371
@ gamma(Z;Z,Z,Z)      58735.3976

@ Averaged gamma parallel to the applied field is    475048.314434

  Total CPU  time used in RESPONSE:   7 hours 21 minutes 54 seconds
  Total wall time used in RESPONSE:   7 hours 22 minutes  2 seconds


                   .-------------------------------------------.
                   | End of Dynamic Property Section (RESPONS) |
                   `-------------------------------------------'

  Total CPU  time used in DALTON:   9 hours  2 minutes 54 seconds
  Total wall time used in DALTON:   9 hours  3 minutes  5 seconds

 
     Date and time (Linux)  : Sat Feb 22 03:38:37 2020
     Host name              : Lab2-333-NPs                            
