

     ************************************************************************
     *************** Dalton - An Electronic Structure Program ***************
     ************************************************************************

    This is output from DALTON release Dalton2018.1 (2019)
         ( Web site: http://daltonprogram.org )

   ----------------------------------------------------------------------------

    NOTE:
     
    Dalton is an experimental code for the evaluation of molecular
    properties using (MC)SCF, DFT, CI, and CC wave functions.
    The authors accept no responsibility for the performance of
    the code or for the correctness of the results.
     
    The code (in whole or part) is provided under a licence and
    is not to be reproduced for further distribution without
    the written permission of the authors or their representatives.
     
    See the home page "http://daltonprogram.org" for further information.
     
    If results obtained with this code are published,
    the appropriate citations would be both of:
     
       K. Aidas, C. Angeli, K. L. Bak, V. Bakken, R. Bast,
       L. Boman, O. Christiansen, R. Cimiraglia, S. Coriani,
       P. Dahle, E. K. Dalskov, U. Ekstroem,
       T. Enevoldsen, J. J. Eriksen, P. Ettenhuber, B. Fernandez,
       L. Ferrighi, H. Fliegl, L. Frediani, K. Hald, A. Halkier,
       C. Haettig, H. Heiberg, T. Helgaker, A. C. Hennum,
       H. Hettema, E. Hjertenaes, S. Hoest, I.-M. Hoeyvik,
       M. F. Iozzi, B. Jansik, H. J. Aa. Jensen, D. Jonsson,
       P. Joergensen, J. Kauczor, S. Kirpekar,
       T. Kjaergaard, W. Klopper, S. Knecht, R. Kobayashi, H. Koch,
       J. Kongsted, A. Krapp, K. Kristensen, A. Ligabue,
       O. B. Lutnaes, J. I. Melo, K. V. Mikkelsen, R. H. Myhre,
       C. Neiss, C. B. Nielsen, P. Norman, J. Olsen,
       J. M. H. Olsen, A. Osted, M. J. Packer, F. Pawlowski,
       T. B. Pedersen, P. F. Provasi, S. Reine, Z. Rinkevicius,
       T. A. Ruden, K. Ruud, V. Rybkin, P. Salek, C. C. M. Samson,
       A. Sanchez de Meras, T. Saue, S. P. A. Sauer,
       B. Schimmelpfennig, K. Sneskov, A. H. Steindal,
       K. O. Sylvester-Hvid, P. R. Taylor, A. M. Teale,
       E. I. Tellgren, D. P. Tew, A. J. Thorvaldsen, L. Thoegersen,
       O. Vahtras, M. A. Watson, D. J. D. Wilson, M. Ziolkowski
       and H. Agren,
       "The Dalton quantum chemistry program system",
       WIREs Comput. Mol. Sci. 2014, 4:269–284 (doi: 10.1002/wcms.1172)
     
    and
     
       Dalton, a molecular electronic structure program,
       Release Dalton2018.1 (2019), see http://daltonprogram.org
   ----------------------------------------------------------------------------

    Authors in alphabetical order (major contribution(s) in parenthesis):

  Kestutis Aidas,           Vilnius University,           Lithuania   (QM/MM)
  Celestino Angeli,         University of Ferrara,        Italy       (NEVPT2)
  Keld L. Bak,              UNI-C,                        Denmark     (AOSOPPA, non-adiabatic coupling, magnetic properties)
  Vebjoern Bakken,          University of Oslo,           Norway      (DALTON; geometry optimizer, symmetry detection)
  Radovan Bast,             UiT The Arctic U. of Norway,  Norway      (DALTON installation and execution frameworks)
  Pablo Baudin,             University of Valencia,       Spain       (Cholesky excitation energies)
  Linus Boman,              NTNU,                         Norway      (Cholesky decomposition and subsystems)
  Ove Christiansen,         Aarhus University,            Denmark     (CC module)
  Renzo Cimiraglia,         University of Ferrara,        Italy       (NEVPT2)
  Sonia Coriani,            Technical Univ. of Denmark,   Denmark     (CC module, MCD in RESPONS)
  Janusz Cukras,            University of Trieste,        Italy       (MChD in RESPONS)
  Paal Dahle,               University of Oslo,           Norway      (Parallelization)
  Erik K. Dalskov,          UNI-C,                        Denmark     (SOPPA)
  Thomas Enevoldsen,        Univ. of Southern Denmark,    Denmark     (SOPPA)
  Janus J. Eriksen,         Aarhus University,            Denmark     (Polarizable embedding model, TDA)
  Rasmus Faber,             University of Copenhagen,     Denmark     (Vib.avg. NMR with SOPPA, parallel AO-SOPPA)
  Tobias Fahleson,          KTH Stockholm,                Sweden      (Damped cubic response)
  Berta Fernandez,          U. of Santiago de Compostela, Spain       (doublet spin, ESR in RESPONS)
  Lara Ferrighi,            Aarhus University,            Denmark     (PCM Cubic response)
  Heike Fliegl,             University of Oslo,           Norway      (CCSD(R12))
  Luca Frediani,            UiT The Arctic U. of Norway,  Norway      (PCM)
  Bin Gao,                  UiT The Arctic U. of Norway,  Norway      (Gen1Int library)
  Christof Haettig,         Ruhr-University Bochum,       Germany     (CC module)
  Kasper Hald,              Aarhus University,            Denmark     (CC module)
  Asger Halkier,            Aarhus University,            Denmark     (CC module)
  Frederik Beyer Hansen,    University of Copenhagen,     Denmark     (Parallel AO-SOPPA)
  Erik D. Hedegaard,        Univ. of Southern Denmark,    Denmark     (Polarizable embedding model, QM/MM)
  Hanne Heiberg,            University of Oslo,           Norway      (geometry analysis, selected one-electron integrals)
  Trygve Helgaker,          University of Oslo,           Norway      (DALTON; ABACUS, ERI, DFT modules, London, and much more)
  Alf Christian Hennum,     University of Oslo,           Norway      (Parity violation)
  Hinne Hettema,            University of Auckland,       New Zealand (quadratic response in RESPONS; SIRIUS supersymmetry)
  Eirik Hjertenaes,         NTNU,                         Norway      (Cholesky decomposition)
  Pi A. B. Haase,           University of Copenhagen,     Denmark     (Triplet AO-SOPPA)
  Maria Francesca Iozzi,    University of Oslo,           Norway      (RPA)
  Christoph Jacob           TU Braunschweig               Germany     (Frozen density embedding model)
  Brano Jansik              Technical Univ. of Ostrava    Czech Rep.  (DFT cubic response)
  Hans Joergen Aa. Jensen,  Univ. of Southern Denmark,    Denmark     (DALTON; SIRIUS, RESPONS, ABACUS modules, London, and much more)
  Dan Jonsson,              UiT The Arctic U. of Norway,  Norway      (cubic response in RESPONS module)
  Poul Joergensen,          Aarhus University,            Denmark     (RESPONS, ABACUS, and CC modules)
  Maciej Kaminski,          University of Warsaw,         Poland      (CPPh in RESPONS)
  Joanna Kauczor,           Linkoeping University,        Sweden      (Complex polarization propagator (CPP) module)
  Sheela Kirpekar,          Univ. of Southern Denmark,    Denmark     (Mass-velocity & Darwin integrals)
  Wim Klopper,              KIT Karlsruhe,                Germany     (R12 code in CC, SIRIUS, and ABACUS modules)
  Stefan Knecht,            ETH Zurich,                   Switzerland (Parallel CI and MCSCF)
  Rika Kobayashi,           Australian National Univ.,    Australia   (DIIS in CC, London in MCSCF)
  Henrik Koch,              NTNU,                         Norway      (CC module, Cholesky decomposition)
  Jacob Kongsted,           Univ. of Southern Denmark,    Denmark     (Polarizable embedding model, QM/MM)
  Andrea Ligabue,           University of Modena,         Italy       (CTOCD, AOSOPPA)
  Nanna H. List             Univ. of Southern Denmark,    Denmark     (Polarizable embedding model)
  Ola B. Lutnaes,           University of Oslo,           Norway      (DFT Hessian)
  Juan I. Melo,             University of Buenos Aires,   Argentina   (LRESC, Relativistic Effects on NMR Shieldings)
  Kurt V. Mikkelsen,        University of Copenhagen,     Denmark     (MC-SCRF and QM/MM)
  Rolf H. Myhre,            NTNU,                         Norway      (Subsystems and CC3)
  Christian Neiss,          Univ. Erlangen-Nuernberg,     Germany     (CCSD(R12))
  Christian B. Nielsen,     University of Copenhagen,     Denmark     (QM/MM)
  Patrick Norman,           KTH Stockholm,                Sweden      (Cubic response and complex frequency response in RESPONS)
  Jeppe Olsen,              Aarhus University,            Denmark     (SIRIUS CI/density modules)
  Jogvan Magnus H. Olsen,   Univ. of Southern Denmark,    Denmark     (Polarizable embedding model, QM/MM)
  Anders Osted,             Copenhagen University,        Denmark     (QM/MM)
  Martin J. Packer,         University of Sheffield,      UK          (SOPPA)
  Filip Pawlowski,          Kazimierz Wielki University,  Poland      (CC3)
  Morten N. Pedersen,       Univ. of Southern Denmark,    Denmark     (Polarizable embedding model)
  Thomas B. Pedersen,       University of Oslo,           Norway      (Cholesky decomposition)
  Patricio F. Provasi,      University of Northeastern,   Argentina   (Analysis of coupling constants in localized orbitals)
  Zilvinas Rinkevicius,     KTH Stockholm,                Sweden      (open-shell DFT, ESR)
  Elias Rudberg,            KTH Stockholm,                Sweden      (DFT grid and basis info)
  Torgeir A. Ruden,         University of Oslo,           Norway      (Numerical derivatives in ABACUS)
  Kenneth Ruud,             UiT The Arctic U. of Norway,  Norway      (DALTON; ABACUS magnetic properties and much more)
  Pawel Salek,              KTH Stockholm,                Sweden      (DALTON; DFT code)
  Claire C. M. Samson       University of Karlsruhe       Germany     (Boys localization, r12 integrals in ERI)
  Alfredo Sanchez de Meras, University of Valencia,       Spain       (CC module, Cholesky decomposition)
  Trond Saue,               Paul Sabatier University,     France      (direct Fock matrix construction)
  Stephan P. A. Sauer,      University of Copenhagen,     Denmark     (SOPPA(CCSD), SOPPA prop., AOSOPPA, vibrational g-factors)
  Andre S. P. Gomes,        CNRS/Universite de Lille,     France      (Frozen density embedding model)
  Bernd Schimmelpfennig,    Forschungszentrum Karlsruhe,  Germany     (AMFI module)
  Kristian Sneskov,         Aarhus University,            Denmark     (Polarizable embedding model, QM/MM)
  Arnfinn H. Steindal,      UiT The Arctic U. of Norway,  Norway      (parallel QM/MM, Polarizable embedding model)
  Casper Steinmann,         Univ. of Southern Denmark,    Denmark     (QFIT, Polarizable embedding model)
  K. O. Sylvester-Hvid,     University of Copenhagen,     Denmark     (MC-SCRF)
  Peter R. Taylor,          VLSCI/Univ. of Melbourne,     Australia   (Symmetry handling ABACUS, integral transformation)
  Andrew M. Teale,          University of Nottingham,     England     (DFT-AC, DFT-D)
  David P. Tew,             University of Bristol,        England     (CCSD(R12))
  Olav Vahtras,             KTH Stockholm,                Sweden      (triplet response, spin-orbit, ESR, TDDFT, open-shell DFT)
  Lucas Visscher,           Vrije Universiteit Amsterdam, Netherlands (Frozen density embedding model)
  David J. Wilson,          La Trobe University,          Australia   (DFT Hessian and DFT magnetizabilities)
  Hans Agren,               KTH Stockholm,                Sweden      (SIRIUS module, RESPONS, MC-SCRF solvation model)
 --------------------------------------------------------------------------------

     Date and time (Linux)  : Wed Feb 26 12:07:00 2020
     Host name              : Lab2-333-NPs                            

 * Work memory size             :  1024000000 =  7.629 gigabytes.

 * Directories for basis set searches:
   1) /home/lab333/dalton/build_2018_atlas
   2) /home/lab333/dalton/build_2018_atlas/basis


Compilation information
-----------------------

 Who compiled             | lab333
 Host                     | Lab2-333-NPs
 System                   | Linux-4.4.0-43-Microsoft
 CMake generator          | Unix Makefiles
 Processor                | x86_64
 64-bit integers          | OFF
 MPI                      | OFF
 Fortran compiler         | /usr/bin/gfortran
 Fortran compiler version | GNU Fortran (Ubuntu 7.3.0-27ubuntu1~18.04) 7.3.0
 C compiler               | /usr/bin/gcc
 C compiler version       | gcc (Ubuntu 7.3.0-27ubuntu1~18.04) 7.3.0
 C++ compiler             | /usr/bin/g++
 C++ compiler version     | g++ (Ubuntu 7.3.0-27ubuntu1~18.04) 7.3.0
 BLAS                     | /usr/lib/x86_64-linux-gnu/libf77blas.so;/usr/lib/x
                          | 86_64-linux-gnu/libcblas.so;/usr/lib/x86_64-linux-
                          | gnu/libatlas.so
 LAPACK                   | /usr/lib/x86_64-linux-gnu/libatlas.so;/usr/lib/x86
                          | _64-linux-gnu/atlas/liblapack.so
 Static linking           | OFF
 Last Git revision        | da625bf48c74028e805616daee31bc5d76b3a20d
 Git branch               | (HEAD detached at Dalton2018.1)
 Configuration time       | 2019-01-18 10:20:51.437510


   Content of the .dal input file
 ----------------------------------

**DALTON INPUT
.RUN RESPONSE
.DIRECT
**WAVE FUNCTIONS
.HF
.MP2
.MCSCF
*CONFIGURATION INPUT
.SPIN MULTIPLICITY
3
.SYMMETRY
1
.INACTIVE ORBITALS
15 10 2 0
.CAS SPACE
1 1 2 3
.ELECTRONS
10
*ORBITAL INPUT
.MOSTART
.HUCKEL
*OPTIMIZATION
.DETERMINANTS
.STATE
1
*CI VECTOR
.PLUS COMBINATIONS
**RESPONSE
*CUBIC
.DIPLEN
.BFREQ
1
0.0584
.CFREQ
1
-0.0584
.DFREQ
1
0.0584
**END OF DALTON INPUT


   Content of the .mol file
 ----------------------------

BASIS
aug-cc-pCVDZ
 nitrobenzene
 Generated by the Dalton Input File Plugin for Avogadro
Atomtypes=4 Angstrom Generators=2 X Y
Charge=6.0 Atoms=4
C        0.0000000000            0.0000000000           -0.0265759623
C       -1.2190534920            0.0000000000           -0.6979856948
C       -1.2105095870            0.0000000000           -2.0897394457
C        0.0000000000            0.0000000000           -2.7841484631
Charge=7.0 Atoms=1
N        0.0000000000            0.0000000000            1.5549291696
Charge=8.0 Atoms=1
O       1.0847503743            0.0            2.1235779798000003
Charge=1.0 Atoms=3
H       -2.1410602955            0.0000000000           -0.1327964319
H       -2.1492827751            0.0000000000           -2.6311811056
H        0.0000000000            0.0000000000           -3.8683953478


       *******************************************************************
       *********** Output from DALTON general input processing ***********
       *******************************************************************

 --------------------------------------------------------------------------------
   Overall default print level:    0
   Print level for DALTON.STAT:    1

    AO-direct calculation (in sections where implemented)
    HERMIT 1- and 2-electron integral sections will be executed
    "Old" integral transformation used (limited to max 255 basis functions)
    Wave function sections will be executed (SIRIUS module)
    Dynamic molecular response properties section will be executed (RESPONSE module)
 --------------------------------------------------------------------------------


   ****************************************************************************
   *************** Output of molecule and basis set information ***************
   ****************************************************************************


    The two title cards from your ".mol" input:
    ------------------------------------------------------------------------
 1:  nitrobenzene                                                           
 2:  Generated by the Dalton Input File Plugin for Avogadro                 
    ------------------------------------------------------------------------

  Coordinates are entered in Angstrom and converted to atomic units.
          - Conversion factor : 1 bohr = 0.52917721 A

  Atomic type no.    1
  --------------------
  Nuclear charge:   6.00000
  Number of symmetry independent centers:    4
  Number of basis sets to read;    2
  Basis set file used for this atomic type with Z =   6 :
     "/home/lab333/dalton/build_2018_atlas/basis/aug-cc-pCVDZ"

  Atomic type no.    2
  --------------------
  Nuclear charge:   7.00000
  Number of symmetry independent centers:    1
  Number of basis sets to read;    2
  Basis set file used for this atomic type with Z =   7 :
     "/home/lab333/dalton/build_2018_atlas/basis/aug-cc-pCVDZ"

  Atomic type no.    3
  --------------------
  Nuclear charge:   8.00000
  Number of symmetry independent centers:    1
  Number of basis sets to read;    2
  Basis set file used for this atomic type with Z =   8 :
     "/home/lab333/dalton/build_2018_atlas/basis/aug-cc-pCVDZ"

  Atomic type no.    4
  --------------------
  Nuclear charge:   1.00000
  Number of symmetry independent centers:    3
  Number of basis sets to read;    2
  Basis set file used for this atomic type with Z =   1 :
     "/home/lab333/dalton/build_2018_atlas/basis/aug-cc-pCVDZ"


                         SYMGRP: Point group information
                         -------------------------------

@    Point group: C2v

@  * The irrep name for each symmetry:    1: A1     2: B1     3: B2     4: A2 

   * The point group was generated by:

      Reflection in the yz-plane
      Reflection in the xz-plane

   * Group multiplication table

        |  E   C2z  Oxz  Oyz
   -----+--------------------
     E  |  E   C2z  Oxz  Oyz
    C2z | C2z   E   Oyz  Oxz
    Oxz | Oxz  Oyz   E   C2z
    Oyz | Oyz  Oxz  C2z   E 

   * Character table

        |  E   C2z  Oxz  Oyz
   -----+--------------------
    A1  |   1    1    1    1
    B1  |   1   -1    1   -1
    B2  |   1   -1   -1    1
    A2  |   1    1   -1   -1

   * Direct product table

        | A1   B1   B2   A2 
   -----+--------------------
    A1  | A1   B1   B2   A2 
    B1  | B1   A1   A2   B2 
    B2  | B2   A2   A1   B1 
    A2  | A2   B2   B1   A1 


                                 Isotopic Masses
                                 ---------------

                           C          12.000000
                           C   _1     12.000000
                           C   _2     12.000000
                           C   _1     12.000000
                           C   _2     12.000000
                           C          12.000000
                           N          14.003074
                           O   _1     15.994915
                           O   _2     15.994915
                           H   _1      1.007825
                           H   _2      1.007825
                           H   _1      1.007825
                           H   _2      1.007825
                           H           1.007825

                       Total mass:   123.032029 amu
                       Natural abundance:  92.716 %

 Center-of-mass coordinates (a.u.):    0.000000    0.000000   -0.313295


  Atoms and basis sets
  --------------------

  Number of atom types :    4
  Total number of atoms:   14

  Basis set used is "aug-cc-pCVDZ" from the basis set library.

  label    atoms   charge   prim   cont     basis
  ----------------------------------------------------------------------
  C           6    6.0000    39    27      [11s6p2d|5s4p2d]                                   
  N           1    7.0000    39    27      [11s6p2d|5s4p2d]                                   
  O           2    8.0000    39    27      [11s6p2d|5s4p2d]                                   
  H           5    1.0000    11     9      [5s2p|3s2p]                                        
  ----------------------------------------------------------------------
  total:     14   64.0000   406   288
  ----------------------------------------------------------------------
  Spherical harmonic basis used.

  Threshold for neglecting AO integrals:  1.00D-12


  Symmetry Coordinates
  --------------------

  Number of coordinates in each symmetry:    14   14    9    5


   Interatomic separations (in Angstrom):
   --------------------------------------

            C           C   _1      C   _2      C   _1      C   _2      C     
            ------      ------      ------      ------      ------      ------
 C     :    0.000000
 C   _1:    1.391719    0.000000
 C   _2:    1.391719    2.438107    0.000000
 C   _1:    2.392065    1.391780    2.799956    0.000000
 C   _2:    2.392065    2.799956    1.391780    2.421019    0.000000
 C     :    2.757573    2.416230    2.416230    1.395542    1.395542    0.000000
 N     :    1.581505    2.561585    2.561585    3.840435    3.840435    4.339078
 O   _1:    2.408287    3.642627    2.824758    4.797944    4.215194    5.026178
 O   _2:    2.408287    2.824758    3.642627    4.215194    4.797944    5.026178
 H   _1:    2.143694    1.081451    3.407316    2.166922    3.881063    3.407904
 H   _2:    2.143694    3.407316    1.081451    3.881063    2.166922    3.407904
 H   _1:    3.376890    2.145360    3.883675    1.083722    3.403140    2.154719
 H   _2:    3.376890    3.883675    2.145360    3.403140    1.083722    2.154719
 H     :    3.841819    3.396703    3.396703    2.151500    2.151500    1.084247

            N           O   _1      O   _2      H   _1      H   _2      H   _1
            ------      ------      ------      ------      ------      ------
 N     :    0.000000
 O   _1:    1.224763    0.000000
 O   _2:    1.224763    2.169501    0.000000
 H   _1:    2.726272    3.936633    2.491388    0.000000
 H   _2:    2.726272    2.491388    3.936633    4.282121    0.000000
 H   _1:    4.705628    5.750366    4.872470    2.498398    4.964773    0.000000
 H   _2:    4.705628    4.872470    5.750366    4.964773    2.498398    4.298566
 H     :    5.423325    6.089370    6.089370    4.305675    4.305675    2.479943

            H   _2      H     
            ------      ------
 H   _2:    0.000000
 H     :    2.479943    0.000000


  Max    interatomic separation is    6.0894 Angstrom (   11.5072 Bohr)
  between atoms   14 and    8, "H     " and "O   _1".

  Min HX interatomic separation is    1.0815 Angstrom (    2.0436 Bohr)

  Min YX interatomic separation is    1.2248 Angstrom (    2.3145 Bohr)


  Bond distances (Angstrom):
  --------------------------

                  atom 1     atom 2       distance
                  ------     ------       --------
  bond distance:  C   _1     C            1.391719
  bond distance:  C   _2     C            1.391719
  bond distance:  C   _1     C   _1       1.391780
  bond distance:  C   _2     C   _2       1.391780
  bond distance:  C          C   _1       1.395542
  bond distance:  C          C   _2       1.395542
  bond distance:  N          C            1.581505
  bond distance:  O   _1     N            1.224763
  bond distance:  O   _2     N            1.224763
  bond distance:  H   _1     C   _1       1.081451
  bond distance:  H   _2     C   _2       1.081451
  bond distance:  H   _1     C   _1       1.083722
  bond distance:  H   _2     C   _2       1.083722
  bond distance:  H          C            1.084247


  Bond angles (degrees):
  ----------------------

                  atom 1     atom 2     atom 3         angle
                  ------     ------     ------         -----
  bond angle:     C   _1     C          C   _2       122.311
  bond angle:     C   _1     C          N            118.844
  bond angle:     C   _2     C          N            118.844
  bond angle:     C          C   _1     C   _1       118.493
  bond angle:     C          C   _1     H   _1       119.647
  bond angle:     C   _1     C   _1     H   _1       121.860
  bond angle:     C          C   _2     C   _2       118.493
  bond angle:     C          C   _2     H   _2       119.647
  bond angle:     C   _2     C   _2     H   _2       121.860
  bond angle:     C   _1     C   _1     C            120.192
  bond angle:     C   _1     C   _1     H   _1       119.623
  bond angle:     C          C   _1     H   _1       120.185
  bond angle:     C   _2     C   _2     C            120.192
  bond angle:     C   _2     C   _2     H   _2       119.623
  bond angle:     C          C   _2     H   _2       120.185
  bond angle:     C   _1     C          C   _2       120.319
  bond angle:     C   _1     C          H            119.841
  bond angle:     C   _2     C          H            119.841
  bond angle:     C          N          O   _1       117.664
  bond angle:     C          N          O   _2       117.664
  bond angle:     O   _1     N          O   _2       124.671




 Principal moments of inertia (u*A**2) and principal axes
 --------------------------------------------------------

   IA     127.027245          0.000000    0.000000    1.000000
   IB     413.334519          1.000000    0.000000    0.000000
   IC     540.361764          0.000000    1.000000    0.000000


 Rotational constants
 --------------------

@    The molecule is planar.

               A                   B                   C

           3978.5088           1222.6876            935.2605 MHz
            0.132709            0.040784            0.031197 cm-1


@  Nuclear repulsion energy :  407.358090739207 Hartree


  Symmetry Orbitals
  -----------------

  Number of orbitals in each symmetry:         115   91   48   34


  Symmetry  A1 ( 1)

    1     C        1s         1
    2     C        1s         2
    3     C        1s         3
    4     C        1s         4
    5     C        1s         5
    6     C        2pz        8
    7     C        2pz       11
    8     C        2pz       14
    9     C        2pz       17
   10     C        3d0       20
   11     C        3d2+      22
   12     C        3d0       25
   13     C        3d2+      27
   14     C        1s        28 +   29
   15     C        1s        30 +   31
   16     C        1s        32 +   33
   17     C        1s        34 +   35
   18     C        1s        36 +   37
   19     C        2px       38 -   39
   20     C        2pz       42 +   43
   21     C        2px       44 -   45
   22     C        2pz       48 +   49
   23     C        2px       50 -   51
   24     C        2pz       54 +   55
   25     C        2px       56 -   57
   26     C        2pz       60 +   61
   27     C        3d0       66 +   67
   28     C        3d1+      68 -   69
   29     C        3d2+      70 +   71
   30     C        3d0       76 +   77
   31     C        3d1+      78 -   79
   32     C        3d2+      80 +   81
   33     C        1s        82 +   83
   34     C        1s        84 +   85
   35     C        1s        86 +   87
   36     C        1s        88 +   89
   37     C        1s        90 +   91
   38     C        2px       92 -   93
   39     C        2pz       96 +   97
   40     C        2px       98 -   99
   41     C        2pz      102 +  103
   42     C        2px      104 -  105
   43     C        2pz      108 +  109
   44     C        2px      110 -  111
   45     C        2pz      114 +  115
   46     C        3d0      120 +  121
   47     C        3d1+     122 -  123
   48     C        3d2+     124 +  125
   49     C        3d0      130 +  131
   50     C        3d1+     132 -  133
   51     C        3d2+     134 +  135
   52     C        1s       136
   53     C        1s       137
   54     C        1s       138
   55     C        1s       139
   56     C        1s       140
   57     C        2pz      143
   58     C        2pz      146
   59     C        2pz      149
   60     C        2pz      152
   61     C        3d0      155
   62     C        3d2+     157
   63     C        3d0      160
   64     C        3d2+     162
   65     N        1s       163
   66     N        1s       164
   67     N        1s       165
   68     N        1s       166
   69     N        1s       167
   70     N        2pz      170
   71     N        2pz      173
   72     N        2pz      176
   73     N        2pz      179
   74     N        3d0      182
   75     N        3d2+     184
   76     N        3d0      187
   77     N        3d2+     189
   78     O        1s       190 +  191
   79     O        1s       192 +  193
   80     O        1s       194 +  195
   81     O        1s       196 +  197
   82     O        1s       198 +  199
   83     O        2px      200 -  201
   84     O        2pz      204 +  205
   85     O        2px      206 -  207
   86     O        2pz      210 +  211
   87     O        2px      212 -  213
   88     O        2pz      216 +  217
   89     O        2px      218 -  219
   90     O        2pz      222 +  223
   91     O        3d0      228 +  229
   92     O        3d1+     230 -  231
   93     O        3d2+     232 +  233
   94     O        3d0      238 +  239
   95     O        3d1+     240 -  241
   96     O        3d2+     242 +  243
   97     H        1s       244 +  245
   98     H        1s       246 +  247
   99     H        1s       248 +  249
  100     H        2px      250 -  251
  101     H        2pz      254 +  255
  102     H        2px      256 -  257
  103     H        2pz      260 +  261
  104     H        1s       262 +  263
  105     H        1s       264 +  265
  106     H        1s       266 +  267
  107     H        2px      268 -  269
  108     H        2pz      272 +  273
  109     H        2px      274 -  275
  110     H        2pz      278 +  279
  111     H        1s       280
  112     H        1s       281
  113     H        1s       282
  114     H        2pz      285
  115     H        2pz      288


  Symmetry  B1 ( 2)

  116     C        2px        6
  117     C        2px        9
  118     C        2px       12
  119     C        2px       15
  120     C        3d1+      21
  121     C        3d1+      26
  122     C        1s        28 -   29
  123     C        1s        30 -   31
  124     C        1s        32 -   33
  125     C        1s        34 -   35
  126     C        1s        36 -   37
  127     C        2px       38 +   39
  128     C        2pz       42 -   43
  129     C        2px       44 +   45
  130     C        2pz       48 -   49
  131     C        2px       50 +   51
  132     C        2pz       54 -   55
  133     C        2px       56 +   57
  134     C        2pz       60 -   61
  135     C        3d0       66 -   67
  136     C        3d1+      68 +   69
  137     C        3d2+      70 -   71
  138     C        3d0       76 -   77
  139     C        3d1+      78 +   79
  140     C        3d2+      80 -   81
  141     C        1s        82 -   83
  142     C        1s        84 -   85
  143     C        1s        86 -   87
  144     C        1s        88 -   89
  145     C        1s        90 -   91
  146     C        2px       92 +   93
  147     C        2pz       96 -   97
  148     C        2px       98 +   99
  149     C        2pz      102 -  103
  150     C        2px      104 +  105
  151     C        2pz      108 -  109
  152     C        2px      110 +  111
  153     C        2pz      114 -  115
  154     C        3d0      120 -  121
  155     C        3d1+     122 +  123
  156     C        3d2+     124 -  125
  157     C        3d0      130 -  131
  158     C        3d1+     132 +  133
  159     C        3d2+     134 -  135
  160     C        2px      141
  161     C        2px      144
  162     C        2px      147
  163     C        2px      150
  164     C        3d1+     156
  165     C        3d1+     161
  166     N        2px      168
  167     N        2px      171
  168     N        2px      174
  169     N        2px      177
  170     N        3d1+     183
  171     N        3d1+     188
  172     O        1s       190 -  191
  173     O        1s       192 -  193
  174     O        1s       194 -  195
  175     O        1s       196 -  197
  176     O        1s       198 -  199
  177     O        2px      200 +  201
  178     O        2pz      204 -  205
  179     O        2px      206 +  207
  180     O        2pz      210 -  211
  181     O        2px      212 +  213
  182     O        2pz      216 -  217
  183     O        2px      218 +  219
  184     O        2pz      222 -  223
  185     O        3d0      228 -  229
  186     O        3d1+     230 +  231
  187     O        3d2+     232 -  233
  188     O        3d0      238 -  239
  189     O        3d1+     240 +  241
  190     O        3d2+     242 -  243
  191     H        1s       244 -  245
  192     H        1s       246 -  247
  193     H        1s       248 -  249
  194     H        2px      250 +  251
  195     H        2pz      254 -  255
  196     H        2px      256 +  257
  197     H        2pz      260 -  261
  198     H        1s       262 -  263
  199     H        1s       264 -  265
  200     H        1s       266 -  267
  201     H        2px      268 +  269
  202     H        2pz      272 -  273
  203     H        2px      274 +  275
  204     H        2pz      278 -  279
  205     H        2px      283
  206     H        2px      286


  Symmetry  B2 ( 3)

  207     C        2py        7
  208     C        2py       10
  209     C        2py       13
  210     C        2py       16
  211     C        3d1-      19
  212     C        3d1-      24
  213     C        2py       40 +   41
  214     C        2py       46 +   47
  215     C        2py       52 +   53
  216     C        2py       58 +   59
  217     C        3d2-      62 -   63
  218     C        3d1-      64 +   65
  219     C        3d2-      72 -   73
  220     C        3d1-      74 +   75
  221     C        2py       94 +   95
  222     C        2py      100 +  101
  223     C        2py      106 +  107
  224     C        2py      112 +  113
  225     C        3d2-     116 -  117
  226     C        3d1-     118 +  119
  227     C        3d2-     126 -  127
  228     C        3d1-     128 +  129
  229     C        2py      142
  230     C        2py      145
  231     C        2py      148
  232     C        2py      151
  233     C        3d1-     154
  234     C        3d1-     159
  235     N        2py      169
  236     N        2py      172
  237     N        2py      175
  238     N        2py      178
  239     N        3d1-     181
  240     N        3d1-     186
  241     O        2py      202 +  203
  242     O        2py      208 +  209
  243     O        2py      214 +  215
  244     O        2py      220 +  221
  245     O        3d2-     224 -  225
  246     O        3d1-     226 +  227
  247     O        3d2-     234 -  235
  248     O        3d1-     236 +  237
  249     H        2py      252 +  253
  250     H        2py      258 +  259
  251     H        2py      270 +  271
  252     H        2py      276 +  277
  253     H        2py      284
  254     H        2py      287


  Symmetry  A2 ( 4)

  255     C        3d2-      18
  256     C        3d2-      23
  257     C        2py       40 -   41
  258     C        2py       46 -   47
  259     C        2py       52 -   53
  260     C        2py       58 -   59
  261     C        3d2-      62 +   63
  262     C        3d1-      64 -   65
  263     C        3d2-      72 +   73
  264     C        3d1-      74 -   75
  265     C        2py       94 -   95
  266     C        2py      100 -  101
  267     C        2py      106 -  107
  268     C        2py      112 -  113
  269     C        3d2-     116 +  117
  270     C        3d1-     118 -  119
  271     C        3d2-     126 +  127
  272     C        3d1-     128 -  129
  273     C        3d2-     153
  274     C        3d2-     158
  275     N        3d2-     180
  276     N        3d2-     185
  277     O        2py      202 -  203
  278     O        2py      208 -  209
  279     O        2py      214 -  215
  280     O        2py      220 -  221
  281     O        3d2-     224 +  225
  282     O        3d1-     226 -  227
  283     O        3d2-     234 +  235
  284     O        3d1-     236 -  237
  285     H        2py      252 -  253
  286     H        2py      258 -  259
  287     H        2py      270 -  271
  288     H        2py      276 -  277

  Symmetries of electric field:  B1 (2)  B2 (3)  A1 (1)

  Symmetries of magnetic field:  B2 (3)  B1 (2)  A2 (4)


                     .---------------------------------------.
                     | Starting in Integral Section (HERMIT) |
                     `---------------------------------------'



 ***************************************************************************************
 ****************** Output from **INTEGRALS input processing (HERMIT) ******************
 ***************************************************************************************


 - Using defaults, no **INTEGRALS input found

 Default print level:        1

 Calculation of one-electron Hamiltonian integrals.

 Center of mass  (bohr):      0.000000000000      0.000000000000     -0.313294721584
 Operator center (bohr):      0.000000000000      0.000000000000      0.000000000000
 Gauge origin    (bohr):      0.000000000000      0.000000000000      0.000000000000
 Dipole origin   (bohr):      0.000000000000      0.000000000000      0.000000000000


     ************************************************************************
     ************************** Output from HERINT **************************
     ************************************************************************



                      Nuclear contribution to dipole moments
                      --------------------------------------

                 au               Debye          C m (/(10**-30)

      z    -28.06554495       -71.33549526      -237.94959930


  Time used in GABGEN     is       0.11 seconds
  Total CPU  time used in HERMIT:   0.44 seconds
  Total wall time used in HERMIT:   0.43 seconds


                        .----------------------------------.
                        | End of Integral Section (HERMIT) |
                        `----------------------------------'



                   .--------------------------------------------.
                   | Starting in Wave Function Section (SIRIUS) |
                   `--------------------------------------------'


 *** Output from Huckel module :

     Using EWMO model:          F
     Using EHT  model:          T
     Number of Huckel orbitals each symmetry:   24   17    6    3

 Huckel EHT eigenvalues for symmetry :  1
          -20.695501     -15.702550     -11.414228     -11.393470     -11.375933
          -11.362259      -1.725380      -1.556742      -1.195769      -0.939307
           -0.820013      -0.781348      -0.649925      -0.590350      -0.494264
           -0.431439      -0.330621      -0.257542      -0.229061      -0.214003
           -0.206209      -0.179752      -0.166642      -0.160932

 Huckel EHT eigenvalues for symmetry :  2
          -20.700503     -11.396439     -11.377834      -1.390745      -1.206640
           -0.880177      -0.647051      -0.568925      -0.527840      -0.481916
           -0.415181      -0.272261      -0.213664      -0.202888      -0.176324
           -0.165534      -0.163541

 Huckel EHT eigenvalues for symmetry :  3
           -0.791639      -0.676689      -0.464487      -0.387357      -0.283444
           -0.237039

 Huckel EHT eigenvalues for symmetry :  4
           -0.592698      -0.460278      -0.288869

 **********************************************************************
 *SIRIUS* a direct, restricted step, second order MCSCF program       *
 **********************************************************************

 
     Date and time (Linux)  : Wed Feb 26 12:07:00 2020
     Host name              : Lab2-333-NPs                            

 Title lines from ".mol" input file:
      nitrobenzene                                                           
      Generated by the Dalton Input File Plugin for Avogadro                 

 Print level on unit LUPRI =   2 is   0
 Print level on unit LUW4  =   2 is   5

@    MC-SCF optimization.

@    Multi-configurational response calculation.
@              Type: complete active space calculation (CAS).

@    This is a combination run starting with
@              a restricted, closed shell Hartree-Fock calculation
@              an MP2 calculation

 Fock matrices are calculated directly without use of integrals on disk.

 Initial molecular orbitals are obtained according to
 ".MOSTART EHT   " input option

     Wave function specification
     ============================
@    Wave function type        --- MC-SCF ---
@    Number of closed shell electrons          54
@    Number of electrons in active shells      10
@    Total charge of the molecule               0

@    Spin multiplicity and 2 M_S                3         2
@    Total number of symmetries                 4 (point group: C2v)
@    Reference state symmetry                   1 (irrep name : A1 )

     Orbital specifications
     ======================
@    Abelian symmetry species          All |    1    2    3    4
@                                          |  A1   B1   B2   A2 
                                       --- |  ---  ---  ---  ---
@    Inactive orbitals                  27 |   15   10    2    0
@    Active orbitals                     7 |    1    1    2    3
@    Secondary orbitals                254 |   99   80   44   31
@    Total number of orbitals          288 |  115   91   48   34
@    Number of basis functions         288 |  115   91   48   34

      ** Automatic occupation of RHF orbitals **

      -- Initial occupation of symmetries is determined from extended Huckel guess.           
      -- Initial occupation of symmetries is :
@    Occupied SCF orbitals              32 |   16   11    3    2

     Optimization information
     ========================
@    Number of determinants                  56
@    Number of orbital rotations           2762
     ------------------------------------------
@    Total number of variables             2818

     Maximum number of macro iterations      25
     Maximum number of micro iterations     600
     Threshold for MCSCF gradient      1.00D-05
     Number of initial trial vectors          1
     Number of initial CI iterations          3
     Number of simultaneous trial vectors     1

@    This calculation converges to the lowest state for the specified symmetry and spin species.

     Maximum number of NEO/NR iterations  24

    INFORMATION: Switched to "new" integral transformation (from 1988 ;-) )
    because more than 255 basis functions.


 ***********************************************
 ***** DIIS acceleration of SCF iterations *****
 ***********************************************

 C1-DIIS algorithm; max error vectors =    8

 Automatic occupation of symmetries with  64 electrons.

 Iter     Total energy    Error norm  Delta(E)    SCF occupation
 -----------------------------------------------------------------------------
   1  Screening settings (-IFTHRS, JTDIIS, DIFDEN, times)   -8    1    T  2.77D+01  2.77D+01
@  1  -432.302175593       6.37D+00  -4.32D+02    16  11   3   2
      Virial theorem: -V/T =      1.999448
@    MULPOP   C       0.27; C   _1  0.28; C   _2  0.28; C   _1  0.25; C   _2  0.25; C       0.34; N       1.27; O   _1 -1.00; O   _2 -1.00; H   _1 -0.20; 
@             H   _2 -0.20; H   _1 -0.18; H   _2 -0.18; H      -0.19; 
   1  Level shift: doubly occupied orbital energies shifted by -2.00D-01
 -----------------------------------------------------------------------------
   2  Screening settings (-IFTHRS, JTDIIS, DIFDEN, times)   -8    2    T  2.77D+01  2.77D+01
@  2  -433.862951523       2.80D+00  -1.56D+00    16  11   3   2
      Virial theorem: -V/T =      2.001889
@    MULPOP   C       0.77; C   _1  0.40; C   _2  0.40; C   _1  0.40; C   _2  0.40; C       0.35; N       0.32; O   _1 -0.52; O   _2 -0.52; H   _1 -0.40; 
@             H   _2 -0.40; H   _1 -0.40; H   _2 -0.40; H      -0.41; 
   2  Level shift: doubly occupied orbital energies shifted by -1.00D-01
 -----------------------------------------------------------------------------
   3  Screening settings (-IFTHRS, JTDIIS, DIFDEN, times)   -8    3    T  2.78D+01  2.78D+01
@  3  -434.198741551       7.32D-01  -3.36D-01    16  11   3   2
      Virial theorem: -V/T =      2.001278
@    MULPOP   C       1.45; C   _1  0.29; C   _2  0.29; C   _1  0.49; C   _2  0.49; C       0.29; N       0.69; O   _1 -0.88; O   _2 -0.88; H   _1 -0.45; 
@             H   _2 -0.45; H   _1 -0.44; H   _2 -0.44; H      -0.44; 
   3  Level shift: doubly occupied orbital energies shifted by -5.00D-02
 -----------------------------------------------------------------------------
   4  Screening settings (-IFTHRS, JTDIIS, DIFDEN, times)   -8    4    T  2.81D+01  2.81D+01
@  4  -434.225336547       1.81D-01  -2.66D-02    16  11   3   2
      Virial theorem: -V/T =      2.003054
@    MULPOP   C       1.51; C   _1  0.26; C   _2  0.26; C   _1  0.55; C   _2  0.55; C       0.29; N       0.53; O   _1 -0.84; O   _2 -0.84; H   _1 -0.45; 
@             H   _2 -0.45; H   _1 -0.46; H   _2 -0.46; H      -0.46; 
   4  Level shift: doubly occupied orbital energies shifted by -1.25D-02
 -----------------------------------------------------------------------------
   5  Screening settings (-IFTHRS, JTDIIS, DIFDEN, times)  -10    5    F  2.81D+01  2.81D+01
@  5  -434.227989875       5.37D-02  -2.65D-03    16  11   3   2
      Virial theorem: -V/T =      2.002475
@    MULPOP   C       1.55; C   _1  0.24; C   _2  0.24; C   _1  0.54; C   _2  0.54; C       0.28; N       0.52; O   _1 -0.85; O   _2 -0.85; H   _1 -0.44; 
@             H   _2 -0.44; H   _1 -0.44; H   _2 -0.44; H      -0.45; 
 -----------------------------------------------------------------------------
   6  Screening settings (-IFTHRS, JTDIIS, DIFDEN, times)  -10    6    T  2.78D+01  2.78D+01
@  6  -434.228325996       1.45D-02  -3.36D-04    16  11   3   2
      Virial theorem: -V/T =      2.002409
@    MULPOP   C       1.57; C   _1  0.23; C   _2  0.23; C   _1  0.54; C   _2  0.54; C       0.28; N       0.50; O   _1 -0.85; O   _2 -0.85; H   _1 -0.44; 
@             H   _2 -0.44; H   _1 -0.44; H   _2 -0.44; H      -0.44; 
 -----------------------------------------------------------------------------
   7  Screening settings (-IFTHRS, JTDIIS, DIFDEN, times)  -13    7    F  2.83D+01  2.83D+01
@  7  -434.228355381       5.60D-03  -2.94D-05    16  11   3   2
      Virial theorem: -V/T =      2.002441
@    MULPOP   C       1.58; C   _1  0.23; C   _2  0.23; C   _1  0.54; C   _2  0.54; C       0.27; N       0.50; O   _1 -0.85; O   _2 -0.85; H   _1 -0.44; 
@             H   _2 -0.44; H   _1 -0.44; H   _2 -0.44; H      -0.44; 
 -----------------------------------------------------------------------------
   8  Screening settings (-IFTHRS, JTDIIS, DIFDEN, times)  -13    8    T  2.82D+01  2.82D+01
@  8  -434.228359516       2.04D-03  -4.14D-06    16  11   3   2
      Virial theorem: -V/T =      2.002429
@    MULPOP   C       1.58; C   _1  0.23; C   _2  0.23; C   _1  0.54; C   _2  0.54; C       0.28; N       0.50; O   _1 -0.85; O   _2 -0.85; H   _1 -0.44; 
@             H   _2 -0.44; H   _1 -0.44; H   _2 -0.44; H      -0.44; 
 -----------------------------------------------------------------------------
   9  Screening settings (-IFTHRS, JTDIIS, DIFDEN, times)  -13    9    T  2.81D+01  2.81D+01
@  9  -434.228360031       7.10D-04  -5.15D-07    16  11   3   2
      Virial theorem: -V/T =      2.002427
@    MULPOP   C       1.58; C   _1  0.23; C   _2  0.23; C   _1  0.54; C   _2  0.54; C       0.28; N       0.50; O   _1 -0.85; O   _2 -0.85; H   _1 -0.44; 
@             H   _2 -0.44; H   _1 -0.44; H   _2 -0.44; H      -0.44; 
 -----------------------------------------------------------------------------
  10  Screening settings (-IFTHRS, JTDIIS, DIFDEN, times)  -13   10    T  2.82D+01  2.82D+01
@ 10  -434.228360108       2.80D-04  -7.74D-08    16  11   3   2
      Virial theorem: -V/T =      2.002428
@    MULPOP   C       1.58; C   _1  0.23; C   _2  0.23; C   _1  0.54; C   _2  0.54; C       0.28; N       0.50; O   _1 -0.85; O   _2 -0.85; H   _1 -0.44; 
@             H   _2 -0.44; H   _1 -0.44; H   _2 -0.44; H      -0.44; 
 -----------------------------------------------------------------------------
  11  Screening settings (-IFTHRS, JTDIIS, DIFDEN, times)  -13   11    T  2.80D+01  2.80D+01
@ 11  -434.228360126       1.10D-04  -1.80D-08    16  11   3   2
      Virial theorem: -V/T =      2.002428
@    MULPOP   C       1.58; C   _1  0.23; C   _2  0.23; C   _1  0.54; C   _2  0.54; C       0.28; N       0.50; O   _1 -0.85; O   _2 -0.85; H   _1 -0.44; 
@             H   _2 -0.44; H   _1 -0.44; H   _2 -0.44; H      -0.44; 
 -----------------------------------------------------------------------------
  12  Screening settings (-IFTHRS, JTDIIS, DIFDEN, times)  -13   12    T  2.79D+01  2.80D+01
@ 12  -434.228360130       4.99D-05  -3.51D-09    16  11   3   2
      Virial theorem: -V/T =      2.002428
@    MULPOP   C       1.58; C   _1  0.23; C   _2  0.23; C   _1  0.54; C   _2  0.54; C       0.28; N       0.50; O   _1 -0.85; O   _2 -0.85; H   _1 -0.44; 
@             H   _2 -0.44; H   _1 -0.44; H   _2 -0.44; H      -0.44; 
 -----------------------------------------------------------------------------
  13  Screening settings (-IFTHRS, JTDIIS, DIFDEN, times)  -13   13    T  2.80D+01  2.81D+01
@ 13  -434.228360130       2.42D-05  -5.67D-10    16  11   3   2
      Virial theorem: -V/T =      2.002428
@    MULPOP   C       1.58; C   _1  0.23; C   _2  0.23; C   _1  0.54; C   _2  0.54; C       0.28; N       0.50; O   _1 -0.85; O   _2 -0.85; H   _1 -0.44; 
@             H   _2 -0.44; H   _1 -0.44; H   _2 -0.44; H      -0.44; 
 -----------------------------------------------------------------------------
  14  Screening settings (-IFTHRS, JTDIIS, DIFDEN, times)  -13   14    T  2.78D+01  2.78D+01
@ 14  -434.228360130       9.78D-06  -1.98D-10    16  11   3   2
      Virial theorem: -V/T =      2.002428
@    MULPOP   C       1.58; C   _1  0.23; C   _2  0.23; C   _1  0.54; C   _2  0.54; C       0.28; N       0.50; O   _1 -0.85; O   _2 -0.85; H   _1 -0.44; 
@             H   _2 -0.44; H   _1 -0.44; H   _2 -0.44; H      -0.44; 
 -----------------------------------------------------------------------------
  15  Screening settings (-IFTHRS, JTDIIS, DIFDEN, times)  -13   15    T  2.73D+01  2.73D+01
@ 15  -434.228360130       3.75D-06  -1.84D-11    16  11   3   2
      Virial theorem: -V/T =      2.002428
@    MULPOP   C       1.58; C   _1  0.23; C   _2  0.23; C   _1  0.54; C   _2  0.54; C       0.28; N       0.50; O   _1 -0.85; O   _2 -0.85; H   _1 -0.44; 
@             H   _2 -0.44; H   _1 -0.44; H   _2 -0.44; H      -0.44; 
 -----------------------------------------------------------------------------
  16  Screening settings (-IFTHRS, JTDIIS, DIFDEN, times)  -13   16    T  2.73D+01  2.74D+01
@ 16  -434.228360130       1.42D-06  -7.96D-12    16  11   3   2
      Virial theorem: -V/T =      2.002428
@    MULPOP   C       1.58; C   _1  0.23; C   _2  0.23; C   _1  0.54; C   _2  0.54; C       0.28; N       0.50; O   _1 -0.85; O   _2 -0.85; H   _1 -0.44; 
@             H   _2 -0.44; H   _1 -0.44; H   _2 -0.44; H      -0.44; 
 -----------------------------------------------------------------------------
  17  Screening settings (-IFTHRS, JTDIIS, DIFDEN, times)  -13   17    T  2.72D+01  2.72D+01
@ 17  -434.228360130       5.41D-07  -2.27D-12    16  11   3   2

@ *** DIIS converged in  17 iterations !
@     Converged SCF energy, gradient:   -434.228360130394    5.41D-07
    - total time used in SIRFCK :              0.00 seconds

 --- Writing SIRIFC interface file

 CPU and wall time for SCF :     474.078     474.335


 ----- Output from SIRIUS MP2 module -----

 Reference: H.J.Aa.Jensen, P.Jorgensen, H.Agren, and J.Olsen,
            J. Chem. Phys. 88, 3834 (1988); 89, 5354 (1988)

 Checking that the closed shell orbitals are canonical Hartree-Fock orbitals

    Number of electrons  :   64
    Closed shell orbitals:   16   11    3    2

 Generating Fock matrix

 Hartree-Fock electronic energy:        -841.586450869605
 Hartree-Fock total      energy:        -434.228360130398

 Hartree-Fock orbital energies, symmetry 1 ( A1 ),   16 occupied SCF orbitals

       -20.61669945   -15.86370285   -11.33082488   -11.28568309   -11.28111912
       -11.27587345    -1.60612990    -1.19913069    -1.07931141    -0.95156166
        -0.83556074    -0.77959839    -0.71139689    -0.65401326    -0.56024351
        -0.48563027     0.02649019     0.04406184     0.06230266     0.10462516
         0.12910574     0.13491803     0.15120424     0.15579854     0.17304341
         0.18059441     0.21355143     0.24883157     0.28522366     0.28831128
         0.31083173     0.32383055     0.34420768     0.35039731     0.36973985
         0.39450343     0.41231554     0.42180650     0.44834254     0.48393403
         0.51043642     0.56043028     0.57886362     0.58777289     0.62929466
         0.64140671     0.65826307     0.67383115     0.72172585     0.72877465
         0.74259678     0.83546489     0.88168484     0.92470046     0.95131281
         0.96339385     1.00445015     1.05224957     1.07275854     1.13315025
         1.27289469     1.35509423     1.37236198     1.45211167     1.49167861
         1.51080640     1.54357629     1.56664622     1.57421065     1.61668235
         1.66752529     1.71168272     1.74818328     1.78120631     1.85924140
         1.93979322     1.94989840     1.99709416     2.01639233     2.11293913
         2.15417981     2.24435889     2.28729880     2.36818941     2.38154867
         2.43925518     2.53555132     2.66087206     2.76651830     2.83308561
         2.87596801     2.95246945     3.03520914     3.12920318     3.26665353
         3.41590722     3.74999413     3.96893806     4.07839868     4.22547457
        19.78621871    20.31808185    20.44286422    20.61769033    23.25755282
        23.35302526    23.42026793    23.79064805    23.89444370    24.10997970
        27.03399884    31.24238774    35.77309294    39.70699956    39.81601800

 Hartree-Fock orbital energies, symmetry 2 ( B1 ),   11 occupied SCF orbitals

       -20.61675229   -11.28571804   -11.27602301    -1.40366439    -1.05699175
        -0.86774468    -0.72831392    -0.66067702    -0.62718561    -0.53379674
        -0.49724434     0.03581868     0.05984315     0.12991206     0.13345160
         0.15336496     0.17401101     0.18317273     0.21339048     0.26223767
         0.28905620     0.31355731     0.33406435     0.35835886     0.36948402
         0.39350919     0.42148531     0.43597065     0.46533946     0.56163130
         0.57769164     0.58628934     0.64751333     0.66773132     0.67688119
         0.69918049     0.75668004     0.76486586     0.82852241     0.84455810
         0.85761778     0.92006814     1.01746110     1.13999096     1.19777792
         1.24501123     1.32798489     1.38911568     1.40328692     1.48471713
         1.56302590     1.58515940     1.61105806     1.63537964     1.67816996
         1.75119017     1.77034191     1.78497989     1.88044614     1.93515729
         1.98840737     2.06884835     2.21338812     2.25346731     2.33674220
         2.34045863     2.38371655     2.51915783     2.55547853     2.80845021
         2.89760422     2.94479435     3.05284874     3.26288289     3.31985162
         3.41117698     3.74328151     3.84009218     4.19797042    20.29208997
        20.47355714    22.88210400    23.33156397    23.38012699    23.93655935
        24.11756670    24.30369211    31.43921306    35.52075062    39.61773746
        40.01889494

 Hartree-Fock orbital energies, symmetry 3 ( B2 ),    3 occupied SCF orbitals

        -0.71261253    -0.54016872    -0.37943003     0.04308511     0.10631926
         0.12209406     0.13872406     0.18533231     0.18874534     0.24263886
         0.31918814     0.33842892     0.37409330     0.44155154     0.53113111
         0.58594085     0.64258195     0.70658737     0.79794227     0.84018291
         0.86862139     0.91522046     0.92465060     0.98000805     1.13954604
         1.27021547     1.28991285     1.44983738     1.47394036     1.60738382
         1.67250953     1.70358143     1.83385636     1.89359271     1.97049844
         2.08050756     2.17455889     2.29392489     2.54258919     2.64722979
         3.66199102     3.78045746    22.53679791    22.68016949    22.82040178
        23.02329747    30.51784732    39.41356990

 Hartree-Fock orbital energies, symmetry 4 ( A2 ),    2 occupied SCF orbitals

        -0.45635738    -0.37111010     0.08441327     0.13097775     0.18572703
         0.29552208     0.41243117     0.48983958     0.54570895     0.65721703
         0.73520871     0.89564381     0.89872186     0.94093462     1.03972854
         1.07978714     1.20989128     1.23124718     1.32297686     1.48025856
         1.67674703     1.68917087     1.86550466     1.99685054     2.12043859
         2.19634640     2.34859296     2.46206595     2.59722565     3.65629501
         3.99714720    22.69075561    22.85619754    39.48845526

    E(LUMO) :     0.02649019   (in symmetry 1)
  - E(HOMO) :    -0.37111010   (in symmetry 4)
  --------------------------
    gap     :     0.39760030

---> (Re)generating AOTWOINT


     ************************************************************************
     ************************** Output from HERINT **************************
     ************************************************************************


 Threshold for neglecting two-electron integrals:  1.00D-12
 HERMIT - Number of two-electron integrals written:   202395347 ( 23.4% )
 HERMIT - Megabytes written:                           3089.599

  Time used in TWOINT     is      39.78 seconds

 2-el. integral transformation level 5: Total CPU and WALL times (sec)     409.750     412.493

 MP2 move   1.002309 electrons to unoccupied HF orbitals


@   Hartree-Fock total energy   :          -434.2283601304
@   + MP2 contribution          :            -1.7291352440
@   = MP2 second order energy   :          -435.9574953744

 Natural orbital occupation numbers, symmetry 1 (irrep A1 )
 Sum =    32.00851339; RHF =    32.00000000; Difference =     0.00851339

         1.99929055     1.99907724     1.99876194     1.99875906     1.99875312
         1.99874982     1.98680776     1.98411454     1.97923017     1.97169455
         1.96868928     1.96777462     1.96534059     1.96207811     1.95493818
         1.94269940     0.04289171     0.04120175     0.02529627     0.02394828
         0.01923171     0.01844530     0.01757731     0.01641257     0.01378729
         0.01266112     0.01167843     0.00984307     0.00856524     0.00781131
         0.00742706     0.00675217     0.00555772     0.00465364     0.00305282
         0.00295386     0.00273807     0.00264430     0.00229359     0.00209403
         0.00183092     0.00167358     0.00165429     0.00132686     0.00122898
         0.00116412     0.00105897     0.00096690     0.00071480     0.00065452
         0.00061219     0.00053411     0.00049908     0.00046244     0.00043985
         0.00041648     0.00041459     0.00038560     0.00037386     0.00035282
         0.00034293     0.00032661     0.00031351     0.00029513     0.00027079
         0.00026416     0.00022636     0.00022115     0.00020905     0.00019752
         0.00018918     0.00018581     0.00017666     0.00017290     0.00016523
         0.00016111     0.00015486     0.00015051     0.00013951     0.00013404
         0.00012812     0.00012492     0.00012215     0.00011102     0.00010415
         0.00009419     0.00007883     0.00007217     0.00005995     0.00005540
         0.00005279     0.00003938     0.00003533     0.00002966     0.00002108
         0.00001706     0.00001435     0.00001328     0.00001208     0.00000953
         0.00000883     0.00000866     0.00000748     0.00000350     0.00000321
         0.00000211     0.00000112     0.00000059     0.00000037     0.00000020
         0.00000015    -0.00000000    -0.00000010    -0.00000051    -0.00005716

 Natural orbital occupation numbers, symmetry 2 (irrep B1 )
 Sum =    21.95285003; RHF =    22.00000000; Difference =    -0.04714997

         1.99929045     1.99875747     1.99875123     1.98407538     1.98003416
         1.97268370     1.96207022     1.96024539     1.95471674     1.95416192
         1.94630713     0.03784689     0.02539266     0.02390635     0.01913442
         0.01659409     0.01592556     0.01537202     0.01134190     0.01057539
         0.00909456     0.00766059     0.00597342     0.00538305     0.00520258
         0.00397692     0.00312358     0.00273306     0.00237716     0.00213251
         0.00169726     0.00162696     0.00152599     0.00132263     0.00121710
         0.00103715     0.00098470     0.00070450     0.00063966     0.00056936
         0.00048775     0.00044113     0.00042223     0.00037082     0.00035745
         0.00033341     0.00030593     0.00029317     0.00026977     0.00025656
         0.00024350     0.00021220     0.00019724     0.00018737     0.00018250
         0.00017747     0.00017088     0.00016863     0.00016055     0.00015283
         0.00014421     0.00013429     0.00013060     0.00012583     0.00011906
         0.00011540     0.00009448     0.00008837     0.00007073     0.00005231
         0.00004623     0.00003667     0.00003053     0.00003008     0.00002268
         0.00001549     0.00001396     0.00001131     0.00001071     0.00000840
         0.00000470     0.00000383     0.00000177     0.00000124     0.00000062
         0.00000032     0.00000014    -0.00000001    -0.00000019    -0.00000068
        -0.00002026

 Natural orbital occupation numbers, symmetry 3 (irrep B2 )
 Sum =     6.07777688; RHF =     6.00000000; Difference =     0.07777688

         1.94981620     1.94455975     1.90897617     0.10034009     0.06901917
         0.02975744     0.01084449     0.01030466     0.00875379     0.00790468
         0.00617347     0.00526665     0.00439429     0.00391308     0.00343938
         0.00307976     0.00162338     0.00144686     0.00098021     0.00088690
         0.00087308     0.00066397     0.00058350     0.00049339     0.00046974
         0.00042287     0.00033674     0.00028961     0.00024673     0.00022835
         0.00019994     0.00019618     0.00018984     0.00017711     0.00015359
         0.00013056     0.00012039     0.00011106     0.00009697     0.00008315
         0.00008003     0.00006475     0.00003800     0.00002136     0.00001059
         0.00000845     0.00000528     0.00000121

 Natural orbital occupation numbers, symmetry 4 (irrep A2 )
 Sum =     3.96085970; RHF =     4.00000000; Difference =    -0.03914030

         1.91583357     1.90867416     0.06692853     0.01429649     0.01043087
         0.00935323     0.00787982     0.00569941     0.00510257     0.00407605
         0.00360475     0.00149947     0.00119191     0.00093933     0.00077784
         0.00072637     0.00067251     0.00056495     0.00040699     0.00037187
         0.00033575     0.00029571     0.00022236     0.00019693     0.00016835
         0.00013329     0.00011705     0.00010359     0.00009329     0.00006987
         0.00004881     0.00002080     0.00001771     0.00000552

 Time used for MP2 natural orbitals :     441.328 CPU seconds,     444.062 wall seconds.

 CPU and wall time for MP2 :     441.328     444.062


        SIRIUS MCSCF optimization (SIROPT)
 ================================================


 Fock matrix screening setting for SIRCNO: IFTHRS =    9


 ----- Output from SIRIUS CI module (CICTL) -----




 2-el. integral transformation level 0: Total CPU and WALL times (sec)      99.141      99.148


 --- SIRCI.CIST1: plus combination of all degenerate
                 configurations is used as start vectors.


 (CIST1) 8 lowest diagonal elements:

 Element no. Config.no.    Active energy      Total energy

         1 :          1    -17.0149588098   -433.9949444829
         2 :         22    -16.8779115975   -433.8578972706
         3 :         28    -16.7547858511   -433.7347715241
         4 :          6    -16.7428115712   -433.7227972443
         5 :          5    -16.7315870330   -433.7115727061
         6 :          3    -16.6796151865   -433.6596008595
         7 :         24    -16.6407175713   -433.6207032444
         8 :          7    -16.6290634714   -433.6090491444


 Convergence threshold for CI optimization :     0.00000500



 *** Reached maximum number of CI iterations:    3
              1 CI roots are not converged.


@ Final CI energies and residuals in symmetry 1 (irrep A1 )
@    1     -434.032342359816141       2.43D-03

   --- OUTPUT FROM SIRCNO     Keyword = FD+NO 


 Occupations of CAS natural orbitals:

 Symmetry  1 ( irrep A1  in C2v )

   1.999818756

 Symmetry  2 ( irrep B1  in C2v )

   1.999830248

 Symmetry  3 ( irrep B2  in C2v )

   1.997262436   0.088190801

 Symmetry  4 ( irrep A2  in C2v )

   1.914929984   1.000746274   0.999221501


 --- MACRO ITERATION  1 ---
 --------------------------

 2-el. integral transformation level 3: Total CPU and WALL times (sec)     100.781     100.881

 Fock matrix screening setting for this macro iteration: 10^( -9)

 Total MCSCF energy       :          -434.032342359404311  (MACRO    1)

 - Nuclear repulsion      :           407.358090739206716
 - Inactive energy        :          -824.338076413265298
 - Active energy          :           -17.052356685345746

 Norm of total gradient   :             0.679611874021
 -    of CI gradient      :             0.004866018891
 -    of orbital gradient :             0.679594453457
      Virial theorem: -V/T =      1.999237
@    MULPOP   C       1.23; C   _1  0.38; C   _2  0.38; C   _1  0.53; C   _2  0.53; C       0.31; N       0.34; O   _1 -0.65; O   _2 -0.65; H   _1 -0.49; 
@             H   _2 -0.49; H   _1 -0.47; H   _2 -0.47; H      -0.47; 

 Residual norm when dim(red L) =   5
 NEO root     CSF        orbital          total
    1     0.07898338     0.03314499     0.08565608 converged

 (NEONEX) NEO vector is converged.

   --- OUTPUT FROM SIRCNO     Keyword = FD+NO 


 Occupations of CAS natural orbitals:

 Symmetry  1 ( irrep A1  in C2v )

   1.999818756

 Symmetry  2 ( irrep B1  in C2v )

   1.999830248

 Symmetry  3 ( irrep B2  in C2v )

   1.997262436   0.088190801

 Symmetry  4 ( irrep A2  in C2v )

   1.914929984   1.000746274   0.999221501


 --- MACRO ITERATION  2 ---
 --------------------------

 2-el. integral transformation level 3: Total CPU and WALL times (sec)     100.516     100.570

 Fock matrix screening setting for this macro iteration: 10^( -9)

 Total MCSCF energy       :          -434.096817175976696  (MACRO    2)

 - Nuclear repulsion      :           407.358090739206716
 - Inactive energy        :          -824.063338607959963
 - Active energy          :           -17.391569307223467

 Norm of total gradient   :             0.075419969432
 -    of CI gradient      :             0.052682175571
 -    of orbital gradient :             0.053969993202
      Virial theorem: -V/T =      2.001258
@    MULPOP   C       1.77; C   _1  0.18; C   _2  0.18; C   _1  0.47; C   _2  0.47; C       0.37; N       0.41; O   _1 -0.79; O   _2 -0.79; H   _1 -0.45; 
@             H   _2 -0.45; H   _1 -0.46; H   _2 -0.46; H      -0.43; 

 (SIRNEO) iteration (  2,  7)
 Micro iteration termination criterion met, EVAL(ISTATE+1) = -2.55D-04

   --- OUTPUT FROM SIRCNO     Keyword = FD+NO 


 Occupations of CAS natural orbitals:

 Symmetry  1 ( irrep A1  in C2v )

   1.999756687

 Symmetry  2 ( irrep B1  in C2v )

   1.999152552

 Symmetry  3 ( irrep B2  in C2v )

   1.994715978   0.126734319

 Symmetry  4 ( irrep A2  in C2v )

   1.879289378   1.001722053   0.998629033


 --- MACRO ITERATION  3 ---
 --------------------------

 2-el. integral transformation level 3: Total CPU and WALL times (sec)     102.000     102.068

 Fock matrix screening setting for this macro iteration: 10^( -9)

 Total MCSCF energy       :          -434.099571670868045  (MACRO    3)

 - Nuclear repulsion      :           407.358090739206716
 - Inactive energy        :          -823.883076264920987
 - Active energy          :           -17.574586145153777

 Norm of total gradient   :             0.027869215685
 -    of CI gradient      :             0.011509579235
 -    of orbital gradient :             0.025381543860
      Virial theorem: -V/T =      2.001159
@    MULPOP   C       1.78; C   _1  0.18; C   _2  0.18; C   _1  0.45; C   _2  0.45; C       0.38; N       0.39; O   _1 -0.78; O   _2 -0.78; H   _1 -0.45; 
@             H   _2 -0.45; H   _1 -0.45; H   _2 -0.45; H      -0.44; 

 (SIRNEO) iteration (  3,  5)
 Micro iteration termination criterion met, EVAL(ISTATE+1) = -2.94D-05

   --- OUTPUT FROM SIRCNO     Keyword = FD+NO 


 Occupations of CAS natural orbitals:

 Symmetry  1 ( irrep A1  in C2v )

   1.999637798

 Symmetry  2 ( irrep B1  in C2v )

   1.998453386

 Symmetry  3 ( irrep B2  in C2v )

   1.990683377   0.131220983

 Symmetry  4 ( irrep A2  in C2v )

   1.880017304   1.002096930   0.997890222


 --- MACRO ITERATION  4 ---
 --------------------------

 2-el. integral transformation level 3: Total CPU and WALL times (sec)     101.406     101.456

 Fock matrix screening setting for this macro iteration: 10^( -9)

 Total MCSCF energy       :          -434.102040808591710  (MACRO    4)

 - Nuclear repulsion      :           407.358090739206716
 - Inactive energy        :          -822.762769218050380
 - Active energy          :           -18.697362329748074

 Norm of total gradient   :             0.035322811502
 -    of CI gradient      :             0.028206725805
 -    of orbital gradient :             0.021262211355
      Virial theorem: -V/T =      2.001076
@    MULPOP   C       1.78; C   _1  0.18; C   _2  0.18; C   _1  0.45; C   _2  0.45; C       0.38; N       0.39; O   _1 -0.78; O   _2 -0.78; H   _1 -0.45; 
@             H   _2 -0.45; H   _1 -0.45; H   _2 -0.45; H      -0.44; 

 Residual norm when dim(red L) =   9
 NEO root     CSF        orbital          total
    1     0.00501511     0.00166875     0.00528546 converged

 (NEONEX) NEO vector is converged.

   --- OUTPUT FROM SIRCNO     Keyword = FD+NO 


 Occupations of CAS natural orbitals:

 Symmetry  1 ( irrep A1  in C2v )

   1.999755144

 Symmetry  2 ( irrep B1  in C2v )

   1.999112911

 Symmetry  3 ( irrep B2  in C2v )

   1.974457368   0.121231798

 Symmetry  4 ( irrep A2  in C2v )

   1.905543688   1.000231263   0.999667828


 --- MACRO ITERATION  5 ---
 --------------------------

 2-el. integral transformation level 3: Total CPU and WALL times (sec)     102.438     102.507

 Fock matrix screening setting for this macro iteration: 10^( -9)

 Total MCSCF energy       :          -434.103627110614866  (MACRO    5)

 - Nuclear repulsion      :           407.358090739206716
 - Inactive energy        :          -821.943945078571915
 - Active energy          :           -19.517772771249657

 Norm of total gradient   :             0.067702054828
 -    of CI gradient      :             0.064325357839
 -    of orbital gradient :             0.021114368727
      Virial theorem: -V/T =      2.001078
@    MULPOP   C       1.78; C   _1  0.18; C   _2  0.18; C   _1  0.45; C   _2  0.45; C       0.38; N       0.40; O   _1 -0.79; O   _2 -0.79; H   _1 -0.45; 
@             H   _2 -0.45; H   _1 -0.45; H   _2 -0.45; H      -0.44; 

 (SIRNEO) iteration (  5,  7)
 Micro iteration termination criterion met, EVAL(ISTATE+1) = -3.77D-04

   --- OUTPUT FROM SIRCNO     Keyword = FD+NO 


 Occupations of CAS natural orbitals:

 Symmetry  1 ( irrep A1  in C2v )

   1.999685243

 Symmetry  2 ( irrep B1  in C2v )

   1.999103300

 Symmetry  3 ( irrep B2  in C2v )

   1.985414951   0.115001711

 Symmetry  4 ( irrep A2  in C2v )

   1.900915965   1.000023185   0.999855645


 --- MACRO ITERATION  6 ---
 --------------------------

 2-el. integral transformation level 3: Total CPU and WALL times (sec)     103.344     103.727

 Fock matrix screening setting for this macro iteration: 10^( -9)

 Total MCSCF energy       :          -434.105237126822487  (MACRO    6)

 - Nuclear repulsion      :           407.358090739206716
 - Inactive energy        :          -821.470330846027196
 - Active energy          :           -19.992997020002015

 Norm of total gradient   :             0.012263160468
 -    of CI gradient      :             0.008847169822
 -    of orbital gradient :             0.008491919147
      Virial theorem: -V/T =      2.001078
@    MULPOP   C       1.78; C   _1  0.18; C   _2  0.18; C   _1  0.45; C   _2  0.45; C       0.38; N       0.41; O   _1 -0.79; O   _2 -0.79; H   _1 -0.45; 
@             H   _2 -0.45; H   _1 -0.45; H   _2 -0.45; H      -0.44; 

 Residual norm when dim(red L) =  10
 NEO root     CSF        orbital          total
    1     0.00182038     0.00093300     0.00204555 converged

 (NEONEX) NEO vector is converged.

   --- OUTPUT FROM SIRCNO     Keyword = FD+NO 


 Occupations of CAS natural orbitals:

 Symmetry  1 ( irrep A1  in C2v )

   1.998929411

 Symmetry  2 ( irrep B1  in C2v )

   1.999216780

 Symmetry  3 ( irrep B2  in C2v )

   1.985739296   0.115880069

 Symmetry  4 ( irrep A2  in C2v )

   1.900352943   1.000016927   0.999864573


 --- MACRO ITERATION  7 ---
 --------------------------

 2-el. integral transformation level 3: Total CPU and WALL times (sec)     101.594     101.597

 Fock matrix screening setting for this macro iteration: 10^( -9)

 Total MCSCF energy       :          -434.105770528983157  (MACRO    7)

 - Nuclear repulsion      :           407.358090739206716
 - Inactive energy        :          -820.984172757050032
 - Active energy          :           -20.479688511139855

 Norm of total gradient   :             0.005168534627
 -    of CI gradient      :             0.004586295802
 -    of orbital gradient :             0.002383199742
      Virial theorem: -V/T =      2.001102
@    MULPOP   C       1.78; C   _1  0.18; C   _2  0.18; C   _1  0.45; C   _2  0.45; C       0.38; N       0.41; O   _1 -0.79; O   _2 -0.79; H   _1 -0.45; 
@             H   _2 -0.45; H   _1 -0.45; H   _2 -0.45; H      -0.44; 

 Residual norm when dim(red L) =  10
 NEO root     CSF        orbital          total
    1     0.00069072     0.00038934     0.00079289 converged

 (NEONEX) NEO vector is converged.

   --- OUTPUT FROM SIRCNO     Keyword = FD+NO 


 Occupations of CAS natural orbitals:

 Symmetry  1 ( irrep A1  in C2v )

   1.998033235

 Symmetry  2 ( irrep B1  in C2v )

   1.999567629

 Symmetry  3 ( irrep B2  in C2v )

   1.985946450   0.115561788

 Symmetry  4 ( irrep A2  in C2v )

   1.901010666   1.000018949   0.999861283


 --- MACRO ITERATION  8 ---
 --------------------------

 2-el. integral transformation level 3: Total CPU and WALL times (sec)     101.703     101.712

 Fock matrix screening setting for this macro iteration: 10^( -9)

 Total MCSCF energy       :          -434.105928040175229  (MACRO    8)

 - Nuclear repulsion      :           407.358090739206716
 - Inactive energy        :          -820.752763447231700
 - Active energy          :           -20.711255332150262

 Norm of total gradient   :             0.014574783434
 -    of CI gradient      :             0.014417993858
 -    of orbital gradient :             0.002132080031
      Virial theorem: -V/T =      2.001098
@    MULPOP   C       1.78; C   _1  0.18; C   _2  0.18; C   _1  0.45; C   _2  0.45; C       0.38; N       0.41; O   _1 -0.79; O   _2 -0.79; H   _1 -0.45; 
@             H   _2 -0.45; H   _1 -0.45; H   _2 -0.45; H      -0.44; 

 Residual norm when dim(red L) =  11
 NEO root     CSF        orbital          total
    1     0.00078086     0.00036537     0.00086211 converged

 (NEONEX) NEO vector is converged.

   --- OUTPUT FROM SIRCNO     Keyword = FD+NO 


 Occupations of CAS natural orbitals:

 Symmetry  1 ( irrep A1  in C2v )

   1.998545426

 Symmetry  2 ( irrep B1  in C2v )

   1.999515182

 Symmetry  3 ( irrep B2  in C2v )

   1.985936426   0.114871558

 Symmetry  4 ( irrep A2  in C2v )

   1.901252286   1.000019082   0.999860039


 --- MACRO ITERATION  9 ---
 --------------------------

 2-el. integral transformation level 3: Total CPU and WALL times (sec)     101.250     101.293

 Fock matrix screening setting for this macro iteration: 10^( -9)

 Total MCSCF energy       :          -434.106001287900597  (MACRO    9)

 - Nuclear repulsion      :           407.358090739206716
 - Inactive energy        :          -820.663044762567324
 - Active energy          :           -20.801047264539982

 Norm of total gradient   :             0.001662947167
 -    of CI gradient      :             0.001607474033
 -    of orbital gradient :             0.000425934872
      Virial theorem: -V/T =      2.001101
@    MULPOP   C       1.78; C   _1  0.18; C   _2  0.18; C   _1  0.45; C   _2  0.45; C       0.38; N       0.41; O   _1 -0.79; O   _2 -0.79; H   _1 -0.45; 
@             H   _2 -0.45; H   _1 -0.45; H   _2 -0.45; H      -0.44; 

 Residual norm when dim(red L) =  22
 NEO root     CSF        orbital          total
    1     0.00000480     0.00000472     0.00000673 converged

 (NEONEX) NEO vector is converged.

   --- OUTPUT FROM SIRCNO     Keyword = FD+NO 


 Occupations of CAS natural orbitals:

 Symmetry  1 ( irrep A1  in C2v )

   1.998595330

 Symmetry  2 ( irrep B1  in C2v )

   1.999519784

 Symmetry  3 ( irrep B2  in C2v )

   1.985911926   0.115206797

 Symmetry  4 ( irrep A2  in C2v )

   1.900887160   1.000019482   0.999859520


 --- MACRO ITERATION 10 ---
 --------------------------

 2-el. integral transformation level 3: Total CPU and WALL times (sec)     101.453     101.481

 Fock matrix screening setting for this macro iteration: 10^( -9)

 Total MCSCF energy       :          -434.106002602142098  (MACRO   10)

 - Nuclear repulsion      :           407.358090739206716
 - Inactive energy        :          -820.672813361233466
 - Active energy          :           -20.791279980115320

 Norm of total gradient   :             0.000034933857
 -    of CI gradient      :             0.000034362796
 -    of orbital gradient :             0.000006290677
      Virial theorem: -V/T =      2.001101
@    MULPOP   C       1.78; C   _1  0.18; C   _2  0.18; C   _1  0.45; C   _2  0.45; C       0.38; N       0.41; O   _1 -0.79; O   _2 -0.79; H   _1 -0.45; 
@             H   _2 -0.45; H   _1 -0.45; H   _2 -0.45; H      -0.44; 

 Residual norm when dim(red L) =   4
 NEO root     CSF        orbital          total
    1     0.00000241     0.00000806     0.00000841 converged

 (NEONEX) NEO vector is converged.

   --- OUTPUT FROM SIRCNO     Keyword = FD+NO 


 Occupations of CAS natural orbitals:

 Symmetry  1 ( irrep A1  in C2v )

   1.998596680

 Symmetry  2 ( irrep B1  in C2v )

   1.999519801

 Symmetry  3 ( irrep B2  in C2v )

   1.985912293   0.115205563

 Symmetry  4 ( irrep A2  in C2v )

   1.900886653   1.000019493   0.999859517


 --- MACRO ITERATION 11 ---
 --------------------------

 2-el. integral transformation level 3: Total CPU and WALL times (sec)     100.828     100.821

 Fock matrix screening setting for this macro iteration: 10^( -9)

 Total MCSCF energy       :          -434.106002602765670  (MACRO   11)

 - Nuclear repulsion      :           407.358090739206716
 - Inactive energy        :          -820.672450772745606
 - Active energy          :           -20.791642569226759

 Norm of total gradient   :             0.000008414519
 -    of CI gradient      :             0.000002406229
 -    of orbital gradient :             0.000008063138
      Virial theorem: -V/T =      2.001101
@    MULPOP   C       1.78; C   _1  0.18; C   _2  0.18; C   _1  0.45; C   _2  0.45; C       0.38; N       0.41; O   _1 -0.79; O   _2 -0.79; H   _1 -0.45; 
@             H   _2 -0.45; H   _1 -0.45; H   _2 -0.45; H      -0.44; 

 (SIRSTP) Energy difference;
 actual, predicted and ratio:  -0.000000000623572  -0.000000000615378    1.013317
 Close to convergence, ratio set to one.

 *** Optimization control: MCSCF converged ***
     Number of macro iterations used           11
     Number of micro iterations used           77
[...]

       No.  Residual tot.,    conf., and orb.    Bnorm      Frequency 
      ----------------------------------------------------------------
         1    1.53545D+01  3.16D+00  1.50D+01  2.69D+02    0.00000D+00

 ** RSPCTL MICROITERATION NUMBER    3

       No.  Residual tot.,    conf., and orb.    Bnorm      Frequency 
      ----------------------------------------------------------------
         1    8.07956D+00  3.52D+00  7.27D+00  2.77D+02    0.00000D+00

 ** RSPCTL MICROITERATION NUMBER    4

       No.  Residual tot.,    conf., and orb.    Bnorm      Frequency 
      ----------------------------------------------------------------
         1    4.29865D+00  3.46D+00  2.56D+00  2.79D+02    0.00000D+00

 ** RSPCTL MICROITERATION NUMBER    5

       No.  Residual tot.,    conf., and orb.    Bnorm      Frequency 
      ----------------------------------------------------------------
         1    2.54351D+00  8.41D-01  2.40D+00  2.79D+02    0.00000D+00

 ** RSPCTL MICROITERATION NUMBER    6

       No.  Residual tot.,    conf., and orb.    Bnorm      Frequency 
      ----------------------------------------------------------------
         1    1.29839D+00  9.86D-01  8.44D-01  2.81D+02    0.00000D+00

 ** RSPCTL MICROITERATION NUMBER    7

       No.  Residual tot.,    conf., and orb.    Bnorm      Frequency 
      ----------------------------------------------------------------
         1    9.56809D-01  2.96D-01  9.10D-01  2.81D+02    0.00000D+00

 ** RSPCTL MICROITERATION NUMBER    8

       No.  Residual tot.,    conf., and orb.    Bnorm      Frequency 
      ----------------------------------------------------------------
         1    8.28215D-01  7.09D-01  4.28D-01  2.86D+02    0.00000D+00

 ** RSPCTL MICROITERATION NUMBER    9

       No.  Residual tot.,    conf., and orb.    Bnorm      Frequency 
      ----------------------------------------------------------------
         1    1.46389D+00  2.45D-01  1.44D+00  2.93D+02    0.00000D+00

 ** RSPCTL MICROITERATION NUMBER   10

 *** INFO, negative eigenvalues in reduced matrix. Symmetry  4,  triplet       F Dimension of reduced matrix =    22

 GP * SOLUTION vector at frequency     0.00000 a.u.
 after   11 linear transformations is      1.22147000D+04
 INERTIA (POS,ZER,NEG) of reduced matrix is   21    0    1
 Determinant of reduced matrix is -3.86 * 10 **-17.0

       No.  Residual tot.,    conf., and orb.    Bnorm      Frequency 
      ----------------------------------------------------------------
         1    2.10702D+00  9.21D-01  1.89D+00  2.98D+02    0.00000D+00

 ** RSPCTL MICROITERATION NUMBER   11

 *** INFO, negative eigenvalues in reduced matrix. Symmetry  4,  triplet       F Dimension of reduced matrix =    24

 GP * SOLUTION vector at frequency     0.00000 a.u.
 after   12 linear transformations is      1.22158465D+04
 INERTIA (POS,ZER,NEG) of reduced matrix is   23    0    1
 Determinant of reduced matrix is -8.74 * 10 **-21.0

       No.  Residual tot.,    conf., and orb.    Bnorm      Frequency 
      ----------------------------------------------------------------
         1    8.36720D-01  7.01D-01  4.57D-01  2.85D+02    0.00000D+00

 ** RSPCTL MICROITERATION NUMBER   12

 *** INFO, negative eigenvalues in reduced matrix. Symmetry  4,  triplet       F Dimension of reduced matrix =    26

 GP * SOLUTION vector at frequency     0.00000 a.u.
 after   13 linear transformations is      1.22162324D+04
 INERTIA (POS,ZER,NEG) of reduced matrix is   25    0    1
 Determinant of reduced matrix is -7.92 * 10 **-21.0

       No.  Residual tot.,    conf., and orb.    Bnorm      Frequency 
      ----------------------------------------------------------------
         1    4.47326D-01  2.35D-02  4.47D-01  2.81D+02    0.00000D+00

 ** RSPCTL MICROITERATION NUMBER   13

 *** INFO, negative eigenvalues in reduced matrix. Symmetry  4,  triplet       F Dimension of reduced matrix =    28

 GP * SOLUTION vector at frequency     0.00000 a.u.
 after   14 linear transformations is      1.22163222D+04
 INERTIA (POS,ZER,NEG) of reduced matrix is   27    0    1
 Determinant of reduced matrix is -2.51 * 10 **-22.0

       No.  Residual tot.,    conf., and orb.    Bnorm      Frequency 
      ----------------------------------------------------------------
         1    1.71804D-01  3.59D-02  1.68D-01  2.81D+02    0.00000D+00

 *** THE REQUESTED    1 SOLUTION VECTORS CONVERGED

 Convergence of RSP solution vectors, threshold = 1.00D-03
 ---------------------------------------------------------------
 (dimension of paired reduced space:   28)
 RSP solution vector no.    1; norm of residual   6.12D-04

 *** RSPCTL MICROITERATIONS CONVERGED
    XDIPLEN     YDIPLEN      freq1     freq2                Norm
 ---------------------------------------------------------------
                          0.058400 -0.058400        280.71393762


 Perturbation symmetry.     KSYMOP:       1
 Perturbation spin symmetry.TRPLET:       F
 Orbital variables.         KZWOPT:    2762
 Configuration variables.   KZCONF:      56
 Total number of variables. KZVAR :    2818


 CRLRV2 -- linear response calc for sym:  1
 CRLRV2 -- operator label1: YDIPLEN 
 CRLRV2 -- operator label2: YDIPLEN 
 CRLRV2 -- freqr1 :   5.840000D-02
 CRLRV2 -- freqr2 :   5.840000D-02



 ---  SOLVING SETS OF LINEAR EQUATIONS FOR LINEAR RESPONSE PROPERTIES ---

 Operator symmetry = 1  ( A1 ); triplet =   F


 ** RSPCTL MICROITERATION NUMBER    1

       No.  Residual tot.,    conf., and orb.    Bnorm      Frequency 
      ----------------------------------------------------------------
         1    3.24030D+01  2.50D+00  3.23D+01  2.91D+02    1.16800D-01

 ** RSPCTL MICROITERATION NUMBER    2

       No.  Residual tot.,    conf., and orb.    Bnorm      Frequency 
      ----------------------------------------------------------------
         1    1.90659D+01  3.64D+00  1.87D+01  3.51D+02    1.16800D-01

 ** RSPCTL MICROITERATION NUMBER    3

       No.  Residual tot.,    conf., and orb.    Bnorm      Frequency 
      ----------------------------------------------------------------
         1    9.95759D+00  3.53D+00  9.31D+00  3.67D+02    1.16800D-01

 ** RSPCTL MICROITERATION NUMBER    4

       No.  Residual tot.,    conf., and orb.    Bnorm      Frequency 
      ----------------------------------------------------------------
         1    7.28860D+00  3.36D+00  6.47D+00  3.74D+02    1.16800D-01

 ** RSPCTL MICROITERATION NUMBER    5

       No.  Residual tot.,    conf., and orb.    Bnorm      Frequency 
      ----------------------------------------------------------------
         1    5.03309D+00  3.16D+00  3.91D+00  3.76D+02    1.16800D-01

 ** RSPCTL MICROITERATION NUMBER    6

       No.  Residual tot.,    conf., and orb.    Bnorm      Frequency 
      ----------------------------------------------------------------
         1    3.28069D+00  3.10D+00  1.08D+00  3.77D+02    1.16800D-01

 ** RSPCTL MICROITERATION NUMBER    7

       No.  Residual tot.,    conf., and orb.    Bnorm      Frequency 
      ----------------------------------------------------------------
         1    2.85318D+00  1.84D+00  2.18D+00  3.77D+02    1.16800D-01

 ** RSPCTL MICROITERATION NUMBER    8

       No.  Residual tot.,    conf., and orb.    Bnorm      Frequency 
      ----------------------------------------------------------------
         1    2.08301D+00  1.96D+00  7.02D-01  3.77D+02    1.16800D-01

 ** RSPCTL MICROITERATION NUMBER    9

       No.  Residual tot.,    conf., and orb.    Bnorm      Frequency 
      ----------------------------------------------------------------
         1    9.62553D-01  3.66D-01  8.90D-01  3.77D+02    1.16800D-01

 ** RSPCTL MICROITERATION NUMBER   10

       No.  Residual tot.,    conf., and orb.    Bnorm      Frequency 
      ----------------------------------------------------------------
         1    4.92428D-01  3.96D-01  2.93D-01  3.78D+02    1.16800D-01

 ** RSPCTL MICROITERATION NUMBER   11

       No.  Residual tot.,    conf., and orb.    Bnorm      Frequency 
      ----------------------------------------------------------------
         1    3.98459D-01  4.40D-02  3.96D-01  3.78D+02    1.16800D-01

 ** RSPCTL MICROITERATION NUMBER   12

       No.  Residual tot.,    conf., and orb.    Bnorm      Frequency 
      ----------------------------------------------------------------
         1    2.06436D-01  5.66D-02  1.99D-01  3.78D+02    1.16800D-01

 *** THE REQUESTED    1 SOLUTION VECTORS CONVERGED

 Convergence of RSP solution vectors, threshold = 1.00D-03
 ---------------------------------------------------------------
 (dimension of paired reduced space:   26)
 RSP solution vector no.    1; norm of residual   5.47D-04

 *** RSPCTL MICROITERATIONS CONVERGED
    YDIPLEN     YDIPLEN      freq1     freq2                Norm
 ---------------------------------------------------------------
                          0.058400  0.058400        377.60901772
  Time used in CRVEC2     is       2 hours 27 minutes 21 seconds


 ----- CALCULATING CONTRIBUTIONS TO SECOND HYPERPOLARIZABILITY -----


   Contribution                Term         Accumulated
 ------------------------------------------------------
 Na T[4] Nb Nc Nd    -4740.55310200      -4740.55310200
 Na T[3] Nx Nyz       6745.23384123       2004.68073923
 Na X[3] Ny Nz       12147.51786324      14152.19860247
 Nx A[3] Ny Nz        4049.17262108      18201.37122356
 Na X[2] Nyz        -25168.95239660      -6967.58117304
 Nx A[2] Nyz        -24760.80408843     -31728.38526147

@ Cubic response function value in a.u. for
@ A operator, symmetry, frequency:   ZDIPLEN    1 -0.058400
@ B operator, symmetry, frequency:   ZDIPLEN    1  0.058400
@ C operator, symmetry, frequency:   ZDIPLEN    1 -0.058400
@ D operator, symmetry, frequency:   ZDIPLEN    1  0.058400

@ << A; B, C, D >>  =      -31728.38526147



   Contribution                Term         Accumulated
 ------------------------------------------------------
 Na T[4] Nb Nc Nd     -335.05209907       -335.05209907
 Na T[3] Nx Nyz      -9063.21645590      -9398.26855497
 Na X[3] Ny Nz        8176.94372108      -1221.32483390
 Nx A[3] Ny Nz        2342.73714348       1121.41230959
 Na X[2] Nyz        -19646.93499156     -18525.52268197
 Nx A[2] Nyz        -18098.88434197     -36624.40702394

@ Cubic response function value in a.u. for
@ A operator, symmetry, frequency:   XDIPLEN    2 -0.058400
@ B operator, symmetry, frequency:   XDIPLEN    2  0.058400
@ C operator, symmetry, frequency:   ZDIPLEN    1 -0.058400
@ D operator, symmetry, frequency:   ZDIPLEN    1  0.058400

@ << A; B, C, D >>  =      -36624.40702394



   Contribution                Term         Accumulated
 ------------------------------------------------------
 Na T[4] Nb Nc Nd     -578.93026513       -578.93026513
 Na T[3] Nx Nyz      -4297.39319271      -4876.32345784
 Na X[3] Ny Nz        1450.48586344      -3425.83759440
 Nx A[3] Ny Nz         605.61166218      -2820.22593222
 Na X[2] Nyz         56665.19764702      53844.97171480
 Nx A[2] Nyz         37658.43263123      91503.40434603

@ Cubic response function value in a.u. for
@ A operator, symmetry, frequency:   YDIPLEN    3 -0.058400
@ B operator, symmetry, frequency:   YDIPLEN    3  0.058400
@ C operator, symmetry, frequency:   ZDIPLEN    1 -0.058400
@ D operator, symmetry, frequency:   ZDIPLEN    1  0.058400

@ << A; B, C, D >>  =       91503.40434603



   Contribution                Term         Accumulated
 ------------------------------------------------------
 Na T[4] Nb Nc Nd     -145.53200508       -145.53200508
 Na T[3] Nx Nyz      -9664.88682860      -9810.41883368
 Na X[3] Ny Nz        7365.47166616      -2444.94716752
 Nx A[3] Ny Nz        2083.89664679       -361.05052072
 Na X[2] Nyz        -11728.91508162     -12089.96560235
 Nx A[2] Nyz         -8714.99019536     -20804.95579771

@ Cubic response function value in a.u. for
@ A operator, symmetry, frequency:   XDIPLEN    2 -0.058400
@ B operator, symmetry, frequency:   ZDIPLEN    1  0.058400
@ C operator, symmetry, frequency:   XDIPLEN    2 -0.058400
@ D operator, symmetry, frequency:   ZDIPLEN    1  0.058400

@ << A; B, C, D >>  =      -20804.95579771



   Contribution                Term         Accumulated
 ------------------------------------------------------
 Na T[4] Nb Nc Nd     -518.71810127       -518.71810127
 Na T[3] Nx Nyz       2505.24756561       1986.52946434
 Na X[3] Ny Nz        1255.70097005       3242.23043438
 Nx A[3] Ny Nz         539.98160284       3782.21203722
 Na X[2] Nyz        -15228.18937232     -11445.97733509
 Nx A[2] Nyz        -13216.47406271     -24662.45139781

@ Cubic response function value in a.u. for
@ A operator, symmetry, frequency:   YDIPLEN    3 -0.058400
@ B operator, symmetry, frequency:   ZDIPLEN    1  0.058400
@ C operator, symmetry, frequency:   YDIPLEN    3 -0.058400
@ D operator, symmetry, frequency:   ZDIPLEN    1  0.058400

@ << A; B, C, D >>  =      -24662.45139781



   Contribution                Term         Accumulated
 ------------------------------------------------------
 Na T[4] Nb Nc Nd     2728.47006844       2728.47006844
 Na T[3] Nx Nyz     -21410.32141794     -18681.85134950
 Na X[3] Ny Nz       13461.81957081      -5220.03177869
 Nx A[3] Ny Nz        4858.53376553       -361.49801317
 Na X[2] Nyz         -7428.19525669      -7789.69326985
 Nx A[2] Nyz        -13017.61551517     -20807.30878502

@ Cubic response function value in a.u. for
@ A operator, symmetry, frequency:   ZDIPLEN    1 -0.058400
@ B operator, symmetry, frequency:   XDIPLEN    2  0.058400
@ C operator, symmetry, frequency:   ZDIPLEN    1 -0.058400
@ D operator, symmetry, frequency:   XDIPLEN    2  0.058400

@ << A; B, C, D >>  =      -20807.30878502



   Contribution                Term         Accumulated
 ------------------------------------------------------
 Na T[4] Nb Nc Nd   112515.60054632     112515.60054632
 Na T[3] Nx Nyz    -136350.33943464     -23834.73888831
 Na X[3] Ny Nz       90128.04193876      66293.30305045
 Nx A[3] Ny Nz       30042.68064625      96335.98369670
 Na X[2] Nyz        -34659.00743913      61676.97625757
 Nx A[2] Nyz        -42955.18231439      18721.79394318

@ Cubic response function value in a.u. for
@ A operator, symmetry, frequency:   XDIPLEN    2 -0.058400
@ B operator, symmetry, frequency:   XDIPLEN    2  0.058400
@ C operator, symmetry, frequency:   XDIPLEN    2 -0.058400
@ D operator, symmetry, frequency:   XDIPLEN    2  0.058400

@ << A; B, C, D >>  =       18721.79394318



   Contribution                Term         Accumulated
 ------------------------------------------------------
 Na T[4] Nb Nc Nd    -1330.69158897      -1330.69158897
 Na T[3] Nx Nyz       4913.36183258       3582.67024361
 Na X[3] Ny Nz        4846.26550444       8428.93574805
 Nx A[3] Ny Nz        1786.03402489      10214.96977294
 Na X[2] Nyz        -89718.52080066     -79503.55102772
 Nx A[2] Nyz        -60689.59162312    -140193.14265085

@ Cubic response function value in a.u. for
@ A operator, symmetry, frequency:   YDIPLEN    3 -0.058400
@ B operator, symmetry, frequency:   YDIPLEN    3  0.058400
@ C operator, symmetry, frequency:   XDIPLEN    2 -0.058400
@ D operator, symmetry, frequency:   XDIPLEN    2  0.058400

@ << A; B, C, D >>  =     -140193.14265085



   Contribution                Term         Accumulated
 ------------------------------------------------------
 Na T[4] Nb Nc Nd     -995.70833954       -995.70833954
 Na T[3] Nx Nyz       1439.11682002        443.40848049
 Na X[3] Ny Nz        4018.94027427       4462.34875476
 Nx A[3] Ny Nz        1459.25663171       5921.60538647
 Na X[2] Nyz        -18213.60604503     -12292.00065856
 Nx A[2] Nyz        -17673.63604501     -29965.63670357

@ Cubic response function value in a.u. for
@ A operator, symmetry, frequency:   YDIPLEN    3 -0.058400
@ B operator, symmetry, frequency:   XDIPLEN    2  0.058400
@ C operator, symmetry, frequency:   YDIPLEN    3 -0.058400
@ D operator, symmetry, frequency:   XDIPLEN    2  0.058400

@ << A; B, C, D >>  =      -29965.63670357



   Contribution                Term         Accumulated
 ------------------------------------------------------
 Na T[4] Nb Nc Nd     -533.05039872       -533.05039872
 Na T[3] Nx Nyz       1689.17104617       1156.12064745
 Na X[3] Ny Nz        1402.14533348       2558.26598093
 Nx A[3] Ny Nz         345.96716501       2904.23314594
 Na X[2] Nyz        -12762.47058826      -9858.23744233
 Nx A[2] Nyz        -14808.07315250     -24666.31059483

@ Cubic response function value in a.u. for
@ A operator, symmetry, frequency:   ZDIPLEN    1 -0.058400
@ B operator, symmetry, frequency:   YDIPLEN    3  0.058400
@ C operator, symmetry, frequency:   ZDIPLEN    1 -0.058400
@ D operator, symmetry, frequency:   YDIPLEN    3  0.058400

@ << A; B, C, D >>  =      -24666.31059483



   Contribution                Term         Accumulated
 ------------------------------------------------------
 Na T[4] Nb Nc Nd     -831.40678043       -831.40678043
 Na T[3] Nx Nyz       2703.99657041       1872.58978998
 Na X[3] Ny Nz        3119.69812403       4992.28791401
 Nx A[3] Ny Nz         920.28950106       5912.57741506
 Na X[2] Nyz        -17275.22921792     -11362.65180286
 Nx A[2] Nyz        -18589.00180047     -29951.65360332

@ Cubic response function value in a.u. for
@ A operator, symmetry, frequency:   XDIPLEN    2 -0.058400
@ B operator, symmetry, frequency:   YDIPLEN    3  0.058400
@ C operator, symmetry, frequency:   XDIPLEN    2 -0.058400
@ D operator, symmetry, frequency:   YDIPLEN    3  0.058400

@ << A; B, C, D >>  =      -29951.65360332



   Contribution                Term         Accumulated
 ------------------------------------------------------
 Na T[4] Nb Nc Nd     -975.20345670       -975.20345670
 Na T[3] Nx Nyz       4416.35877847       3441.15532177
 Na X[3] Ny Nz        3109.31215069       6550.46747246
 Nx A[3] Ny Nz        1036.43738356       7586.90485602
 Na X[2] Nyz        -19195.50282877     -11608.59797275
 Nx A[2] Nyz        -19234.34160391     -30842.93957666

@ Cubic response function value in a.u. for
@ A operator, symmetry, frequency:   YDIPLEN    3 -0.058400
@ B operator, symmetry, frequency:   YDIPLEN    3  0.058400
@ C operator, symmetry, frequency:   YDIPLEN    3 -0.058400
@ D operator, symmetry, frequency:   YDIPLEN    3  0.058400

@ << A; B, C, D >>  =      -30842.93957666



  Summary of gamma values for a set of frequencies
 -------------------------------------------------

@ B-freq:  0.058400
@ C-freq: -0.058400
@ D-freq:  0.058400

@ gamma(X;X,X,X)     -18721.7939
@ gamma(X;X,Y,Y)     140193.1427
@ gamma(X;Y,Y,X)     140193.1427
@ gamma(X;Y,X,Y)      29951.6536
@ gamma(X;X,Z,Z)      36624.4070
@ gamma(X;Z,Z,X)      36624.4070
@ gamma(X;Z,X,Z)      20804.9558
@ gamma(Y;Y,X,X)     140193.1427
@ gamma(Y;X,X,Y)     140193.1427
@ gamma(Y;X,Y,X)      29965.6367
@ gamma(Y;Y,Y,Y)      30842.9396
@ gamma(Y;Y,Z,Z)     -91503.4043
@ gamma(Y;Z,Z,Y)     -91503.4043
@ gamma(Y;Z,Y,Z)      24662.4514
@ gamma(Z;Z,X,X)      36624.4070
@ gamma(Z;X,X,Z)      36624.4070
@ gamma(Z;X,Z,X)      20807.3088
@ gamma(Z;Z,Y,Y)     -91503.4043
@ gamma(Z;Y,Y,Z)     -91503.4043
@ gamma(Z;Y,Z,Y)      24666.3106
@ gamma(Z;Z,Z,Z)      31728.3853

@ Averaged gamma parallel to the applied field is     41577.566059

  Total CPU  time used in RESPONSE:   7 hours 14 minutes 27 seconds
  Total wall time used in RESPONSE:   7 hours 14 minutes 40 seconds


                   .-------------------------------------------.
                   | End of Dynamic Property Section (RESPONS) |
                   `-------------------------------------------'

  Total CPU  time used in DALTON:   8 hours 40 minutes 57 seconds
  Total wall time used in DALTON:   8 hours 41 minutes 16 seconds

 
     Date and time (Linux)  : Wed Feb 26 20:48:15 2020
     Host name              : Lab2-333-NPs                            
