

     ************************************************************************
     *************** Dalton - An Electronic Structure Program ***************
     ************************************************************************

    This is output from DALTON release Dalton2018.1 (2019)
         ( Web site: http://daltonprogram.org )

   ----------------------------------------------------------------------------

    NOTE:
     
    Dalton is an experimental code for the evaluation of molecular
    properties using (MC)SCF, DFT, CI, and CC wave functions.
    The authors accept no responsibility for the performance of
    the code or for the correctness of the results.
     
    The code (in whole or part) is provided under a licence and
    is not to be reproduced for further distribution without
    the written permission of the authors or their representatives.
     
    See the home page "http://daltonprogram.org" for further information.
     
    If results obtained with this code are published,
    the appropriate citations would be both of:
     
       K. Aidas, C. Angeli, K. L. Bak, V. Bakken, R. Bast,
       L. Boman, O. Christiansen, R. Cimiraglia, S. Coriani,
       P. Dahle, E. K. Dalskov, U. Ekstroem,
       T. Enevoldsen, J. J. Eriksen, P. Ettenhuber, B. Fernandez,
       L. Ferrighi, H. Fliegl, L. Frediani, K. Hald, A. Halkier,
       C. Haettig, H. Heiberg, T. Helgaker, A. C. Hennum,
       H. Hettema, E. Hjertenaes, S. Hoest, I.-M. Hoeyvik,
       M. F. Iozzi, B. Jansik, H. J. Aa. Jensen, D. Jonsson,
       P. Joergensen, J. Kauczor, S. Kirpekar,
       T. Kjaergaard, W. Klopper, S. Knecht, R. Kobayashi, H. Koch,
       J. Kongsted, A. Krapp, K. Kristensen, A. Ligabue,
       O. B. Lutnaes, J. I. Melo, K. V. Mikkelsen, R. H. Myhre,
       C. Neiss, C. B. Nielsen, P. Norman, J. Olsen,
       J. M. H. Olsen, A. Osted, M. J. Packer, F. Pawlowski,
       T. B. Pedersen, P. F. Provasi, S. Reine, Z. Rinkevicius,
       T. A. Ruden, K. Ruud, V. Rybkin, P. Salek, C. C. M. Samson,
       A. Sanchez de Meras, T. Saue, S. P. A. Sauer,
       B. Schimmelpfennig, K. Sneskov, A. H. Steindal,
       K. O. Sylvester-Hvid, P. R. Taylor, A. M. Teale,
       E. I. Tellgren, D. P. Tew, A. J. Thorvaldsen, L. Thoegersen,
       O. Vahtras, M. A. Watson, D. J. D. Wilson, M. Ziolkowski
       and H. Agren,
       "The Dalton quantum chemistry program system",
       WIREs Comput. Mol. Sci. 2014, 4:269–284 (doi: 10.1002/wcms.1172)
     
    and
     
       Dalton, a molecular electronic structure program,
       Release Dalton2018.1 (2019), see http://daltonprogram.org
   ----------------------------------------------------------------------------

    Authors in alphabetical order (major contribution(s) in parenthesis):

  Kestutis Aidas,           Vilnius University,           Lithuania   (QM/MM)
  Celestino Angeli,         University of Ferrara,        Italy       (NEVPT2)
  Keld L. Bak,              UNI-C,                        Denmark     (AOSOPPA, non-adiabatic coupling, magnetic properties)
  Vebjoern Bakken,          University of Oslo,           Norway      (DALTON; geometry optimizer, symmetry detection)
  Radovan Bast,             UiT The Arctic U. of Norway,  Norway      (DALTON installation and execution frameworks)
  Pablo Baudin,             University of Valencia,       Spain       (Cholesky excitation energies)
  Linus Boman,              NTNU,                         Norway      (Cholesky decomposition and subsystems)
  Ove Christiansen,         Aarhus University,            Denmark     (CC module)
  Renzo Cimiraglia,         University of Ferrara,        Italy       (NEVPT2)
  Sonia Coriani,            Technical Univ. of Denmark,   Denmark     (CC module, MCD in RESPONS)
  Janusz Cukras,            University of Trieste,        Italy       (MChD in RESPONS)
  Paal Dahle,               University of Oslo,           Norway      (Parallelization)
  Erik K. Dalskov,          UNI-C,                        Denmark     (SOPPA)
  Thomas Enevoldsen,        Univ. of Southern Denmark,    Denmark     (SOPPA)
  Janus J. Eriksen,         Aarhus University,            Denmark     (Polarizable embedding model, TDA)
  Rasmus Faber,             University of Copenhagen,     Denmark     (Vib.avg. NMR with SOPPA, parallel AO-SOPPA)
  Tobias Fahleson,          KTH Stockholm,                Sweden      (Damped cubic response)
  Berta Fernandez,          U. of Santiago de Compostela, Spain       (doublet spin, ESR in RESPONS)
  Lara Ferrighi,            Aarhus University,            Denmark     (PCM Cubic response)
  Heike Fliegl,             University of Oslo,           Norway      (CCSD(R12))
  Luca Frediani,            UiT The Arctic U. of Norway,  Norway      (PCM)
  Bin Gao,                  UiT The Arctic U. of Norway,  Norway      (Gen1Int library)
  Christof Haettig,         Ruhr-University Bochum,       Germany     (CC module)
  Kasper Hald,              Aarhus University,            Denmark     (CC module)
  Asger Halkier,            Aarhus University,            Denmark     (CC module)
  Frederik Beyer Hansen,    University of Copenhagen,     Denmark     (Parallel AO-SOPPA)
  Erik D. Hedegaard,        Univ. of Southern Denmark,    Denmark     (Polarizable embedding model, QM/MM)
  Hanne Heiberg,            University of Oslo,           Norway      (geometry analysis, selected one-electron integrals)
  Trygve Helgaker,          University of Oslo,           Norway      (DALTON; ABACUS, ERI, DFT modules, London, and much more)
  Alf Christian Hennum,     University of Oslo,           Norway      (Parity violation)
  Hinne Hettema,            University of Auckland,       New Zealand (quadratic response in RESPONS; SIRIUS supersymmetry)
  Eirik Hjertenaes,         NTNU,                         Norway      (Cholesky decomposition)
  Pi A. B. Haase,           University of Copenhagen,     Denmark     (Triplet AO-SOPPA)
  Maria Francesca Iozzi,    University of Oslo,           Norway      (RPA)
  Christoph Jacob           TU Braunschweig               Germany     (Frozen density embedding model)
  Brano Jansik              Technical Univ. of Ostrava    Czech Rep.  (DFT cubic response)
  Hans Joergen Aa. Jensen,  Univ. of Southern Denmark,    Denmark     (DALTON; SIRIUS, RESPONS, ABACUS modules, London, and much more)
  Dan Jonsson,              UiT The Arctic U. of Norway,  Norway      (cubic response in RESPONS module)
  Poul Joergensen,          Aarhus University,            Denmark     (RESPONS, ABACUS, and CC modules)
  Maciej Kaminski,          University of Warsaw,         Poland      (CPPh in RESPONS)
  Joanna Kauczor,           Linkoeping University,        Sweden      (Complex polarization propagator (CPP) module)
  Sheela Kirpekar,          Univ. of Southern Denmark,    Denmark     (Mass-velocity & Darwin integrals)
  Wim Klopper,              KIT Karlsruhe,                Germany     (R12 code in CC, SIRIUS, and ABACUS modules)
  Stefan Knecht,            ETH Zurich,                   Switzerland (Parallel CI and MCSCF)
  Rika Kobayashi,           Australian National Univ.,    Australia   (DIIS in CC, London in MCSCF)
  Henrik Koch,              NTNU,                         Norway      (CC module, Cholesky decomposition)
  Jacob Kongsted,           Univ. of Southern Denmark,    Denmark     (Polarizable embedding model, QM/MM)
  Andrea Ligabue,           University of Modena,         Italy       (CTOCD, AOSOPPA)
  Nanna H. List             Univ. of Southern Denmark,    Denmark     (Polarizable embedding model)
  Ola B. Lutnaes,           University of Oslo,           Norway      (DFT Hessian)
  Juan I. Melo,             University of Buenos Aires,   Argentina   (LRESC, Relativistic Effects on NMR Shieldings)
  Kurt V. Mikkelsen,        University of Copenhagen,     Denmark     (MC-SCRF and QM/MM)
  Rolf H. Myhre,            NTNU,                         Norway      (Subsystems and CC3)
  Christian Neiss,          Univ. Erlangen-Nuernberg,     Germany     (CCSD(R12))
  Christian B. Nielsen,     University of Copenhagen,     Denmark     (QM/MM)
  Patrick Norman,           KTH Stockholm,                Sweden      (Cubic response and complex frequency response in RESPONS)
  Jeppe Olsen,              Aarhus University,            Denmark     (SIRIUS CI/density modules)
  Jogvan Magnus H. Olsen,   Univ. of Southern Denmark,    Denmark     (Polarizable embedding model, QM/MM)
  Anders Osted,             Copenhagen University,        Denmark     (QM/MM)
  Martin J. Packer,         University of Sheffield,      UK          (SOPPA)
  Filip Pawlowski,          Kazimierz Wielki University,  Poland      (CC3)
  Morten N. Pedersen,       Univ. of Southern Denmark,    Denmark     (Polarizable embedding model)
  Thomas B. Pedersen,       University of Oslo,           Norway      (Cholesky decomposition)
  Patricio F. Provasi,      University of Northeastern,   Argentina   (Analysis of coupling constants in localized orbitals)
  Zilvinas Rinkevicius,     KTH Stockholm,                Sweden      (open-shell DFT, ESR)
  Elias Rudberg,            KTH Stockholm,                Sweden      (DFT grid and basis info)
  Torgeir A. Ruden,         University of Oslo,           Norway      (Numerical derivatives in ABACUS)
  Kenneth Ruud,             UiT The Arctic U. of Norway,  Norway      (DALTON; ABACUS magnetic properties and much more)
  Pawel Salek,              KTH Stockholm,                Sweden      (DALTON; DFT code)
  Claire C. M. Samson       University of Karlsruhe       Germany     (Boys localization, r12 integrals in ERI)
  Alfredo Sanchez de Meras, University of Valencia,       Spain       (CC module, Cholesky decomposition)
  Trond Saue,               Paul Sabatier University,     France      (direct Fock matrix construction)
  Stephan P. A. Sauer,      University of Copenhagen,     Denmark     (SOPPA(CCSD), SOPPA prop., AOSOPPA, vibrational g-factors)
  Andre S. P. Gomes,        CNRS/Universite de Lille,     France      (Frozen density embedding model)
  Bernd Schimmelpfennig,    Forschungszentrum Karlsruhe,  Germany     (AMFI module)
  Kristian Sneskov,         Aarhus University,            Denmark     (Polarizable embedding model, QM/MM)
  Arnfinn H. Steindal,      UiT The Arctic U. of Norway,  Norway      (parallel QM/MM, Polarizable embedding model)
  Casper Steinmann,         Univ. of Southern Denmark,    Denmark     (QFIT, Polarizable embedding model)
  K. O. Sylvester-Hvid,     University of Copenhagen,     Denmark     (MC-SCRF)
  Peter R. Taylor,          VLSCI/Univ. of Melbourne,     Australia   (Symmetry handling ABACUS, integral transformation)
  Andrew M. Teale,          University of Nottingham,     England     (DFT-AC, DFT-D)
  David P. Tew,             University of Bristol,        England     (CCSD(R12))
  Olav Vahtras,             KTH Stockholm,                Sweden      (triplet response, spin-orbit, ESR, TDDFT, open-shell DFT)
  Lucas Visscher,           Vrije Universiteit Amsterdam, Netherlands (Frozen density embedding model)
  David J. Wilson,          La Trobe University,          Australia   (DFT Hessian and DFT magnetizabilities)
  Hans Agren,               KTH Stockholm,                Sweden      (SIRIUS module, RESPONS, MC-SCRF solvation model)
 --------------------------------------------------------------------------------

     Date and time (Linux)  : Sun Mar  1 06:53:43 2020
     Host name              : Lab2-333-NPs                            

 * Work memory size             :  1024000000 =  7.629 gigabytes.

 * Directories for basis set searches:
   1) /home/lab333/dalton/build_2018_atlas
   2) /home/lab333/dalton/build_2018_atlas/basis


Compilation information
-----------------------

 Who compiled             | lab333
 Host                     | Lab2-333-NPs
 System                   | Linux-4.4.0-43-Microsoft
 CMake generator          | Unix Makefiles
 Processor                | x86_64
 64-bit integers          | OFF
 MPI                      | OFF
 Fortran compiler         | /usr/bin/gfortran
 Fortran compiler version | GNU Fortran (Ubuntu 7.3.0-27ubuntu1~18.04) 7.3.0
 C compiler               | /usr/bin/gcc
 C compiler version       | gcc (Ubuntu 7.3.0-27ubuntu1~18.04) 7.3.0
 C++ compiler             | /usr/bin/g++
 C++ compiler version     | g++ (Ubuntu 7.3.0-27ubuntu1~18.04) 7.3.0
 BLAS                     | /usr/lib/x86_64-linux-gnu/libf77blas.so;/usr/lib/x
                          | 86_64-linux-gnu/libcblas.so;/usr/lib/x86_64-linux-
                          | gnu/libatlas.so
 LAPACK                   | /usr/lib/x86_64-linux-gnu/libatlas.so;/usr/lib/x86
                          | _64-linux-gnu/atlas/liblapack.so
 Static linking           | OFF
 Last Git revision        | da625bf48c74028e805616daee31bc5d76b3a20d
 Git branch               | (HEAD detached at Dalton2018.1)
 Configuration time       | 2019-01-18 10:20:51.437510


   Content of the .dal input file
 ----------------------------------

**DALTON INPUT
.RUN RESPONSE
.DIRECT
**WAVE FUNCTIONS
.HF
.MP2
.MCSCF
*CONFIGURATION INPUT
.SPIN MULTIPLICITY
3
.SYMMETRY
1
.INACTIVE ORBITALS
15 10 2 0
.CAS SPACE
1 1 2 3
.ELECTRONS
10
*ORBITAL INPUT
.MOSTART
.HUCKEL
*OPTIMIZATION
.DETERMINANTS
.STATE
2
*CI VECTOR
.PLUS COMBINATIONS
**RESPONSE
*CUBIC
.DIPLEN
.BFREQ
1
0.0584
.CFREQ
1
-0.0584
.DFREQ
1
0.0584
**END OF DALTON INPUT


   Content of the .mol file
 ----------------------------

BASIS
aug-cc-pCVDZ
 nitrobenzene
 Generated by the Dalton Input File Plugin for Avogadro
Atomtypes=4 Angstrom Generators=2 X Y
Charge=6.0 Atoms=4
C        0.0000000000            0.0000000000           -0.0265759623
C       -1.2190534920            0.0000000000           -0.6979856948
C       -1.2105095870            0.0000000000           -2.0897394457
C        0.0000000000            0.0000000000           -2.7841484631
Charge=7.0 Atoms=1
N        0.0000000000            0.0000000000            1.3882625029333333
Charge=8.0 Atoms=1
O       1.0847503743            0.0            1.9569113131333336
Charge=1.0 Atoms=3
H       -2.1410602955            0.0000000000           -0.1327964319
H       -2.1492827751            0.0000000000           -2.6311811056
H        0.0000000000            0.0000000000           -3.8683953478


       *******************************************************************
       *********** Output from DALTON general input processing ***********
       *******************************************************************

 --------------------------------------------------------------------------------
   Overall default print level:    0
   Print level for DALTON.STAT:    1

    AO-direct calculation (in sections where implemented)
    HERMIT 1- and 2-electron integral sections will be executed
    "Old" integral transformation used (limited to max 255 basis functions)
    Wave function sections will be executed (SIRIUS module)
    Dynamic molecular response properties section will be executed (RESPONSE module)
 --------------------------------------------------------------------------------


   ****************************************************************************
   *************** Output of molecule and basis set information ***************
   ****************************************************************************


    The two title cards from your ".mol" input:
    ------------------------------------------------------------------------
 1:  nitrobenzene                                                           
 2:  Generated by the Dalton Input File Plugin for Avogadro                 
    ------------------------------------------------------------------------

  Coordinates are entered in Angstrom and converted to atomic units.
          - Conversion factor : 1 bohr = 0.52917721 A

  Atomic type no.    1
  --------------------
  Nuclear charge:   6.00000
  Number of symmetry independent centers:    4
  Number of basis sets to read;    2
  Basis set file used for this atomic type with Z =   6 :
     "/home/lab333/dalton/build_2018_atlas/basis/aug-cc-pCVDZ"

  Atomic type no.    2
  --------------------
  Nuclear charge:   7.00000
  Number of symmetry independent centers:    1
  Number of basis sets to read;    2
  Basis set file used for this atomic type with Z =   7 :
     "/home/lab333/dalton/build_2018_atlas/basis/aug-cc-pCVDZ"

  Atomic type no.    3
  --------------------
  Nuclear charge:   8.00000
  Number of symmetry independent centers:    1
  Number of basis sets to read;    2
  Basis set file used for this atomic type with Z =   8 :
     "/home/lab333/dalton/build_2018_atlas/basis/aug-cc-pCVDZ"

  Atomic type no.    4
  --------------------
  Nuclear charge:   1.00000
  Number of symmetry independent centers:    3
  Number of basis sets to read;    2
  Basis set file used for this atomic type with Z =   1 :
     "/home/lab333/dalton/build_2018_atlas/basis/aug-cc-pCVDZ"


                         SYMGRP: Point group information
                         -------------------------------

@    Point group: C2v

@  * The irrep name for each symmetry:    1: A1     2: B1     3: B2     4: A2 

   * The point group was generated by:

      Reflection in the yz-plane
      Reflection in the xz-plane

   * Group multiplication table

        |  E   C2z  Oxz  Oyz
   -----+--------------------
     E  |  E   C2z  Oxz  Oyz
    C2z | C2z   E   Oyz  Oxz
    Oxz | Oxz  Oyz   E   C2z
    Oyz | Oyz  Oxz  C2z   E 

   * Character table

        |  E   C2z  Oxz  Oyz
   -----+--------------------
    A1  |   1    1    1    1
    B1  |   1   -1    1   -1
    B2  |   1   -1   -1    1
    A2  |   1    1   -1   -1

   * Direct product table

        | A1   B1   B2   A2 
   -----+--------------------
    A1  | A1   B1   B2   A2 
    B1  | B1   A1   A2   B2 
    B2  | B2   A2   A1   B1 
    A2  | A2   B2   B1   A1 


                                 Isotopic Masses
                                 ---------------

                           C          12.000000
                           C   _1     12.000000
                           C   _2     12.000000
                           C   _1     12.000000
                           C   _2     12.000000
                           C          12.000000
                           N          14.003074
                           O   _1     15.994915
                           O   _2     15.994915
                           H   _1      1.007825
                           H   _2      1.007825
                           H   _1      1.007825
                           H   _2      1.007825
                           H           1.007825

                       Total mass:   123.032029 amu
                       Natural abundance:  92.716 %

 Center-of-mass coordinates (a.u.):    0.000000    0.000000   -0.431034


  Atoms and basis sets
  --------------------

  Number of atom types :    4
  Total number of atoms:   14

  Basis set used is "aug-cc-pCVDZ" from the basis set library.

  label    atoms   charge   prim   cont     basis
  ----------------------------------------------------------------------
  C           6    6.0000    39    27      [11s6p2d|5s4p2d]                                   
  N           1    7.0000    39    27      [11s6p2d|5s4p2d]                                   
  O           2    8.0000    39    27      [11s6p2d|5s4p2d]                                   
  H           5    1.0000    11     9      [5s2p|3s2p]                                        
  ----------------------------------------------------------------------
  total:     14   64.0000   406   288
  ----------------------------------------------------------------------
  Spherical harmonic basis used.

  Threshold for neglecting AO integrals:  1.00D-12


  Symmetry Coordinates
  --------------------

  Number of coordinates in each symmetry:    14   14    9    5


   Interatomic separations (in Angstrom):
   --------------------------------------

            C           C   _1      C   _2      C   _1      C   _2      C     
            ------      ------      ------      ------      ------      ------
 C     :    0.000000
 C   _1:    1.391719    0.000000
 C   _2:    1.391719    2.438107    0.000000
 C   _1:    2.392065    1.391780    2.799956    0.000000
 C   _2:    2.392065    2.799956    1.391780    2.421019    0.000000
 C     :    2.757573    2.416230    2.416230    1.395542    1.395542    0.000000
 N     :    1.414838    2.416304    2.416304    3.682639    3.682639    4.172411
 O   _1:    2.260731    3.515109    2.658292    4.652268    4.048604    4.863572
 O   _2:    2.260731    2.658292    3.515109    4.048604    4.652268    4.863572
 H   _1:    2.143694    1.081451    3.407316    2.166922    3.881063    3.407904
 H   _2:    2.143694    3.407316    1.081451    3.881063    2.166922    3.407904
 H   _1:    3.376890    2.145360    3.883675    1.083722    3.403140    2.154719
 H   _2:    3.376890    3.883675    2.145360    3.403140    1.083722    2.154719
 H     :    3.841819    3.396703    3.396703    2.151500    2.151500    1.084247

            N           O   _1      O   _2      H   _1      H   _2      H   _1
            ------      ------      ------      ------      ------      ------
 N     :    0.000000
 O   _1:    1.224763    0.000000
 O   _2:    1.224763    2.169501    0.000000
 H   _1:    2.626359    3.843531    2.341510    0.000000
 H   _2:    2.626359    2.341510    3.843531    4.282121    0.000000
 H   _1:    4.557998    5.613338    4.709970    2.498398    4.964773    0.000000
 H   _2:    4.557998    4.709970    5.613338    4.964773    2.498398    4.298566
 H     :    5.256658    5.925444    5.925444    4.305675    4.305675    2.479943

            H   _2      H     
            ------      ------
 H   _2:    0.000000
 H     :    2.479943    0.000000


  Max    interatomic separation is    5.9254 Angstrom (   11.1975 Bohr)
  between atoms   14 and    8, "H     " and "O   _1".

  Min HX interatomic separation is    1.0815 Angstrom (    2.0436 Bohr)

  Min YX interatomic separation is    1.2248 Angstrom (    2.3145 Bohr)


  Bond distances (Angstrom):
  --------------------------

                  atom 1     atom 2       distance
                  ------     ------       --------
  bond distance:  C   _1     C            1.391719
  bond distance:  C   _2     C            1.391719
  bond distance:  C   _1     C   _1       1.391780
  bond distance:  C   _2     C   _2       1.391780
  bond distance:  C          C   _1       1.395542
  bond distance:  C          C   _2       1.395542
  bond distance:  N          C            1.414838
  bond distance:  O   _1     N            1.224763
  bond distance:  O   _2     N            1.224763
  bond distance:  H   _1     C   _1       1.081451
  bond distance:  H   _2     C   _2       1.081451
  bond distance:  H   _1     C   _1       1.083722
  bond distance:  H   _2     C   _2       1.083722
  bond distance:  H          C            1.084247


  Bond angles (degrees):
  ----------------------

                  atom 1     atom 2     atom 3         angle
                  ------     ------     ------         -----
  bond angle:     C   _1     C          C   _2       122.311
  bond angle:     C   _1     C          N            118.844
  bond angle:     C   _2     C          N            118.844
  bond angle:     C          C   _1     C   _1       118.493
  bond angle:     C          C   _1     H   _1       119.647
  bond angle:     C   _1     C   _1     H   _1       121.860
  bond angle:     C          C   _2     C   _2       118.493
  bond angle:     C          C   _2     H   _2       119.647
  bond angle:     C   _2     C   _2     H   _2       121.860
  bond angle:     C   _1     C   _1     C            120.192
  bond angle:     C   _1     C   _1     H   _1       119.623
  bond angle:     C          C   _1     H   _1       120.185
  bond angle:     C   _2     C   _2     C            120.192
  bond angle:     C   _2     C   _2     H   _2       119.623
  bond angle:     C          C   _2     H   _2       120.185
  bond angle:     C   _1     C          C   _2       120.319
  bond angle:     C   _1     C          H            119.841
  bond angle:     C   _2     C          H            119.841
  bond angle:     C          N          O   _1       117.664
  bond angle:     C          N          O   _2       117.664
  bond angle:     O   _1     N          O   _2       124.671




 Principal moments of inertia (u*A**2) and principal axes
 --------------------------------------------------------

   IA     127.027245          0.000000    0.000000    1.000000
   IB     381.690577          1.000000    0.000000    0.000000
   IC     508.717822          0.000000    1.000000    0.000000


 Rotational constants
 --------------------

@    The molecule is planar.

               A                   B                   C

           3978.5088           1324.0542            993.4368 MHz
            0.132709            0.044166            0.033137 cm-1


@  Nuclear repulsion energy :  415.511780462993 Hartree


  Symmetry Orbitals
  -----------------

  Number of orbitals in each symmetry:         115   91   48   34


  Symmetry  A1 ( 1)

    1     C        1s         1
    2     C        1s         2
    3     C        1s         3
    4     C        1s         4
    5     C        1s         5
    6     C        2pz        8
    7     C        2pz       11
    8     C        2pz       14
    9     C        2pz       17
   10     C        3d0       20
   11     C        3d2+      22
   12     C        3d0       25
   13     C        3d2+      27
   14     C        1s        28 +   29
   15     C        1s        30 +   31
   16     C        1s        32 +   33
   17     C        1s        34 +   35
   18     C        1s        36 +   37
   19     C        2px       38 -   39
   20     C        2pz       42 +   43
   21     C        2px       44 -   45
   22     C        2pz       48 +   49
   23     C        2px       50 -   51
   24     C        2pz       54 +   55
   25     C        2px       56 -   57
   26     C        2pz       60 +   61
   27     C        3d0       66 +   67
   28     C        3d1+      68 -   69
   29     C        3d2+      70 +   71
   30     C        3d0       76 +   77
   31     C        3d1+      78 -   79
   32     C        3d2+      80 +   81
   33     C        1s        82 +   83
   34     C        1s        84 +   85
   35     C        1s        86 +   87
   36     C        1s        88 +   89
   37     C        1s        90 +   91
   38     C        2px       92 -   93
   39     C        2pz       96 +   97
   40     C        2px       98 -   99
   41     C        2pz      102 +  103
   42     C        2px      104 -  105
   43     C        2pz      108 +  109
   44     C        2px      110 -  111
   45     C        2pz      114 +  115
   46     C        3d0      120 +  121
   47     C        3d1+     122 -  123
   48     C        3d2+     124 +  125
   49     C        3d0      130 +  131
   50     C        3d1+     132 -  133
   51     C        3d2+     134 +  135
   52     C        1s       136
   53     C        1s       137
   54     C        1s       138
   55     C        1s       139
   56     C        1s       140
   57     C        2pz      143
   58     C        2pz      146
   59     C        2pz      149
   60     C        2pz      152
   61     C        3d0      155
   62     C        3d2+     157
   63     C        3d0      160
   64     C        3d2+     162
   65     N        1s       163
   66     N        1s       164
   67     N        1s       165
   68     N        1s       166
   69     N        1s       167
   70     N        2pz      170
   71     N        2pz      173
   72     N        2pz      176
   73     N        2pz      179
   74     N        3d0      182
   75     N        3d2+     184
   76     N        3d0      187
   77     N        3d2+     189
   78     O        1s       190 +  191
   79     O        1s       192 +  193
   80     O        1s       194 +  195
   81     O        1s       196 +  197
   82     O        1s       198 +  199
   83     O        2px      200 -  201
   84     O        2pz      204 +  205
   85     O        2px      206 -  207
   86     O        2pz      210 +  211
   87     O        2px      212 -  213
   88     O        2pz      216 +  217
   89     O        2px      218 -  219
   90     O        2pz      222 +  223
   91     O        3d0      228 +  229
   92     O        3d1+     230 -  231
   93     O        3d2+     232 +  233
   94     O        3d0      238 +  239
   95     O        3d1+     240 -  241
   96     O        3d2+     242 +  243
   97     H        1s       244 +  245
   98     H        1s       246 +  247
   99     H        1s       248 +  249
  100     H        2px      250 -  251
  101     H        2pz      254 +  255
  102     H        2px      256 -  257
  103     H        2pz      260 +  261
  104     H        1s       262 +  263
  105     H        1s       264 +  265
  106     H        1s       266 +  267
  107     H        2px      268 -  269
  108     H        2pz      272 +  273
  109     H        2px      274 -  275
  110     H        2pz      278 +  279
  111     H        1s       280
  112     H        1s       281
  113     H        1s       282
  114     H        2pz      285
  115     H        2pz      288


  Symmetry  B1 ( 2)

  116     C        2px        6
  117     C        2px        9
  118     C        2px       12
  119     C        2px       15
  120     C        3d1+      21
  121     C        3d1+      26
  122     C        1s        28 -   29
  123     C        1s        30 -   31
  124     C        1s        32 -   33
  125     C        1s        34 -   35
  126     C        1s        36 -   37
  127     C        2px       38 +   39
  128     C        2pz       42 -   43
  129     C        2px       44 +   45
  130     C        2pz       48 -   49
  131     C        2px       50 +   51
  132     C        2pz       54 -   55
  133     C        2px       56 +   57
  134     C        2pz       60 -   61
  135     C        3d0       66 -   67
  136     C        3d1+      68 +   69
  137     C        3d2+      70 -   71
  138     C        3d0       76 -   77
  139     C        3d1+      78 +   79
  140     C        3d2+      80 -   81
  141     C        1s        82 -   83
  142     C        1s        84 -   85
  143     C        1s        86 -   87
  144     C        1s        88 -   89
  145     C        1s        90 -   91
  146     C        2px       92 +   93
  147     C        2pz       96 -   97
  148     C        2px       98 +   99
  149     C        2pz      102 -  103
  150     C        2px      104 +  105
  151     C        2pz      108 -  109
  152     C        2px      110 +  111
  153     C        2pz      114 -  115
  154     C        3d0      120 -  121
  155     C        3d1+     122 +  123
  156     C        3d2+     124 -  125
  157     C        3d0      130 -  131
  158     C        3d1+     132 +  133
  159     C        3d2+     134 -  135
  160     C        2px      141
  161     C        2px      144
  162     C        2px      147
  163     C        2px      150
  164     C        3d1+     156
  165     C        3d1+     161
  166     N        2px      168
  167     N        2px      171
  168     N        2px      174
  169     N        2px      177
  170     N        3d1+     183
  171     N        3d1+     188
  172     O        1s       190 -  191
  173     O        1s       192 -  193
  174     O        1s       194 -  195
  175     O        1s       196 -  197
  176     O        1s       198 -  199
  177     O        2px      200 +  201
  178     O        2pz      204 -  205
  179     O        2px      206 +  207
  180     O        2pz      210 -  211
  181     O        2px      212 +  213
  182     O        2pz      216 -  217
  183     O        2px      218 +  219
  184     O        2pz      222 -  223
  185     O        3d0      228 -  229
  186     O        3d1+     230 +  231
  187     O        3d2+     232 -  233
  188     O        3d0      238 -  239
  189     O        3d1+     240 +  241
  190     O        3d2+     242 -  243
  191     H        1s       244 -  245
  192     H        1s       246 -  247
  193     H        1s       248 -  249
  194     H        2px      250 +  251
  195     H        2pz      254 -  255
  196     H        2px      256 +  257
  197     H        2pz      260 -  261
  198     H        1s       262 -  263
  199     H        1s       264 -  265
  200     H        1s       266 -  267
  201     H        2px      268 +  269
  202     H        2pz      272 -  273
  203     H        2px      274 +  275
  204     H        2pz      278 -  279
  205     H        2px      283
  206     H        2px      286


  Symmetry  B2 ( 3)

  207     C        2py        7
  208     C        2py       10
  209     C        2py       13
  210     C        2py       16
  211     C        3d1-      19
  212     C        3d1-      24
  213     C        2py       40 +   41
  214     C        2py       46 +   47
  215     C        2py       52 +   53
  216     C        2py       58 +   59
  217     C        3d2-      62 -   63
  218     C        3d1-      64 +   65
  219     C        3d2-      72 -   73
  220     C        3d1-      74 +   75
  221     C        2py       94 +   95
  222     C        2py      100 +  101
  223     C        2py      106 +  107
  224     C        2py      112 +  113
  225     C        3d2-     116 -  117
  226     C        3d1-     118 +  119
  227     C        3d2-     126 -  127
  228     C        3d1-     128 +  129
  229     C        2py      142
  230     C        2py      145
  231     C        2py      148
  232     C        2py      151
  233     C        3d1-     154
  234     C        3d1-     159
  235     N        2py      169
  236     N        2py      172
  237     N        2py      175
  238     N        2py      178
  239     N        3d1-     181
  240     N        3d1-     186
  241     O        2py      202 +  203
  242     O        2py      208 +  209
  243     O        2py      214 +  215
  244     O        2py      220 +  221
  245     O        3d2-     224 -  225
  246     O        3d1-     226 +  227
  247     O        3d2-     234 -  235
  248     O        3d1-     236 +  237
  249     H        2py      252 +  253
  250     H        2py      258 +  259
  251     H        2py      270 +  271
  252     H        2py      276 +  277
  253     H        2py      284
  254     H        2py      287


  Symmetry  A2 ( 4)

  255     C        3d2-      18
  256     C        3d2-      23
  257     C        2py       40 -   41
  258     C        2py       46 -   47
  259     C        2py       52 -   53
  260     C        2py       58 -   59
  261     C        3d2-      62 +   63
  262     C        3d1-      64 -   65
  263     C        3d2-      72 +   73
  264     C        3d1-      74 -   75
  265     C        2py       94 -   95
  266     C        2py      100 -  101
  267     C        2py      106 -  107
  268     C        2py      112 -  113
  269     C        3d2-     116 +  117
  270     C        3d1-     118 -  119
  271     C        3d2-     126 +  127
  272     C        3d1-     128 -  129
  273     C        3d2-     153
  274     C        3d2-     158
  275     N        3d2-     180
  276     N        3d2-     185
  277     O        2py      202 -  203
  278     O        2py      208 -  209
  279     O        2py      214 -  215
  280     O        2py      220 -  221
  281     O        3d2-     224 +  225
  282     O        3d1-     226 -  227
  283     O        3d2-     234 +  235
  284     O        3d1-     236 -  237
  285     H        2py      252 -  253
  286     H        2py      258 -  259
  287     H        2py      270 -  271
  288     H        2py      276 -  277

  Symmetries of electric field:  B1 (2)  B2 (3)  A1 (1)

  Symmetries of magnetic field:  B2 (3)  B1 (2)  A2 (4)


                     .---------------------------------------.
                     | Starting in Integral Section (HERMIT) |
                     `---------------------------------------'



 ***************************************************************************************
 ****************** Output from **INTEGRALS input processing (HERMIT) ******************
 ***************************************************************************************


 - Using defaults, no **INTEGRALS input found

 Default print level:        1

 Calculation of one-electron Hamiltonian integrals.

 Center of mass  (bohr):      0.000000000000      0.000000000000     -0.431033699745
 Operator center (bohr):      0.000000000000      0.000000000000      0.000000000000
 Gauge origin    (bohr):      0.000000000000      0.000000000000      0.000000000000
 Dipole origin   (bohr):      0.000000000000      0.000000000000      0.000000000000


     ************************************************************************
     ************************** Output from HERINT **************************
     ************************************************************************



                      Nuclear contribution to dipole moments
                      --------------------------------------

                 au               Debye          C m (/(10**-30)

      z    -35.30949510       -89.74777879      -299.36636629


  Time used in GABGEN     is       0.12 seconds
  Total CPU  time used in HERMIT:   0.42 seconds
  Total wall time used in HERMIT:   0.42 seconds


                        .----------------------------------.
                        | End of Integral Section (HERMIT) |
                        `----------------------------------'



                   .--------------------------------------------.
                   | Starting in Wave Function Section (SIRIUS) |
                   `--------------------------------------------'


 *** Output from Huckel module :

     Using EWMO model:          F
     Using EHT  model:          T
     Number of Huckel orbitals each symmetry:   24   17    6    3

 Huckel EHT eigenvalues for symmetry :  1
          -20.696084     -15.709144     -11.415812     -11.395641     -11.377433
          -11.362866      -1.766342      -1.554270      -1.195749      -0.942439
           -0.815009      -0.782601      -0.639224      -0.588244      -0.492511
           -0.427568      -0.326568      -0.241649      -0.221586      -0.213330
           -0.205363      -0.177756      -0.166053      -0.159998

 Huckel EHT eigenvalues for symmetry :  2
          -20.700730     -11.396504     -11.377877      -1.407343      -1.200544
           -0.879420      -0.645994      -0.570725      -0.525424      -0.477278
           -0.414632      -0.270967      -0.212864      -0.202735      -0.176168
           -0.165280      -0.162977

 Huckel EHT eigenvalues for symmetry :  3
           -0.806357      -0.668785      -0.466767      -0.382290      -0.280370
           -0.236085

 Huckel EHT eigenvalues for symmetry :  4
           -0.593026      -0.460020      -0.288800

 **********************************************************************
 *SIRIUS* a direct, restricted step, second order MCSCF program       *
 **********************************************************************

 
     Date and time (Linux)  : Sun Mar  1 06:53:44 2020
     Host name              : Lab2-333-NPs                            

 Title lines from ".mol" input file:
      nitrobenzene                                                           
      Generated by the Dalton Input File Plugin for Avogadro                 

 Print level on unit LUPRI =   2 is   0
 Print level on unit LUW4  =   2 is   5

@    MC-SCF optimization.

@    Multi-configurational response calculation.
@              Type: complete active space calculation (CAS).

@    This is a combination run starting with
@              a restricted, closed shell Hartree-Fock calculation
@              an MP2 calculation

 Fock matrices are calculated directly without use of integrals on disk.

 Initial molecular orbitals are obtained according to
 ".MOSTART EHT   " input option

     Wave function specification
     ============================
@    Wave function type        --- MC-SCF ---
@    Number of closed shell electrons          54
@    Number of electrons in active shells      10
@    Total charge of the molecule               0

@    Spin multiplicity and 2 M_S                3         2
@    Total number of symmetries                 4 (point group: C2v)
@    Reference state symmetry                   1 (irrep name : A1 )

     Orbital specifications
     ======================
@    Abelian symmetry species          All |    1    2    3    4
@                                          |  A1   B1   B2   A2 
                                       --- |  ---  ---  ---  ---
@    Inactive orbitals                  27 |   15   10    2    0
@    Active orbitals                     7 |    1    1    2    3
@    Secondary orbitals                254 |   99   80   44   31
@    Total number of orbitals          288 |  115   91   48   34
@    Number of basis functions         288 |  115   91   48   34

      ** Automatic occupation of RHF orbitals **

      -- Initial occupation of symmetries is determined from extended Huckel guess.           
      -- Initial occupation of symmetries is :
@    Occupied SCF orbitals              32 |   16   11    3    2

     Optimization information
     ========================
@    Number of determinants                  56
@    Number of orbital rotations           2762
     ------------------------------------------
@    Total number of variables             2818

     Maximum number of macro iterations      40
     Maximum number of micro iterations     960
     Threshold for MCSCF gradient      1.00D-05
     Number of initial trial vectors          2
     Number of initial CI iterations          3
     Number of simultaneous trial vectors     2

@    This calculation converges to state no.   2 for the specified symmetry and spin species.

     Maximum number of NEO/NR iterations  24

    INFORMATION: Switched to "new" integral transformation (from 1988 ;-) )
    because more than 255 basis functions.


 ***********************************************
 ***** DIIS acceleration of SCF iterations *****
 ***********************************************

 C1-DIIS algorithm; max error vectors =    8

 Automatic occupation of symmetries with  64 electrons.

 Iter     Total energy    Error norm  Delta(E)    SCF occupation
 -----------------------------------------------------------------------------
   1  Screening settings (-IFTHRS, JTDIIS, DIFDEN, times)   -8    1    T  2.76D+01  2.77D+01
@  1  -432.208897705       6.56D+00  -4.32D+02    16  11   3   2
      Virial theorem: -V/T =      1.997957
@    MULPOP   C       0.41; C   _1  0.25; C   _2  0.25; C   _1  0.23; C   _2  0.23; C       0.38; N       1.32; O   _1 -1.05; O   _2 -1.05; H   _1 -0.20; 
@             H   _2 -0.20; H   _1 -0.18; H   _2 -0.18; H      -0.19; 
   1  Level shift: doubly occupied orbital energies shifted by -2.00D-01
 -----------------------------------------------------------------------------
   2  Screening settings (-IFTHRS, JTDIIS, DIFDEN, times)   -8    2    T  2.76D+01  2.76D+01
@  2  -433.815376428       3.03D+00  -1.61D+00    16  11   3   2
      Virial theorem: -V/T =      2.001086
@    MULPOP   C       1.00; C   _1  0.31; C   _2  0.31; C   _1  0.34; C   _2  0.34; C       0.34; N       0.39; O   _1 -0.53; O   _2 -0.53; H   _1 -0.40; 
@             H   _2 -0.40; H   _1 -0.39; H   _2 -0.39; H      -0.40; 
   2  Level shift: doubly occupied orbital energies shifted by -1.00D-01
 -----------------------------------------------------------------------------
   3  Screening settings (-IFTHRS, JTDIIS, DIFDEN, times)   -8    3    T  2.76D+01  2.76D+01
@  3  -434.207137712       7.07D-01  -3.92D-01    16  11   3   2
      Virial theorem: -V/T =      2.000478
@    MULPOP   C       1.77; C   _1  0.23; C   _2  0.23; C   _1  0.40; C   _2  0.40; C       0.28; N       0.71; O   _1 -0.91; O   _2 -0.91; H   _1 -0.45; 
@             H   _2 -0.45; H   _1 -0.44; H   _2 -0.44; H      -0.44; 
   3  Level shift: doubly occupied orbital energies shifted by -2.50D-02
 -----------------------------------------------------------------------------
   4  Screening settings (-IFTHRS, JTDIIS, DIFDEN, times)   -8    4    T  2.74D+01  2.74D+01
@  4  -434.232174539       1.86D-01  -2.50D-02    16  11   3   2
      Virial theorem: -V/T =      2.002264
@    MULPOP   C       1.88; C   _1  0.15; C   _2  0.15; C   _1  0.50; C   _2  0.50; C       0.28; N       0.57; O   _1 -0.88; O   _2 -0.88; H   _1 -0.45; 
@             H   _2 -0.45; H   _1 -0.45; H   _2 -0.45; H      -0.46; 
   4  Level shift: doubly occupied orbital energies shifted by -1.25D-02
 -----------------------------------------------------------------------------
   5  Screening settings (-IFTHRS, JTDIIS, DIFDEN, times)  -10    5    F  2.78D+01  2.78D+01
@  5  -434.234830314       5.62D-02  -2.66D-03    16  11   3   2
      Virial theorem: -V/T =      2.001703
@    MULPOP   C       1.90; C   _1  0.14; C   _2  0.14; C   _1  0.49; C   _2  0.49; C       0.26; N       0.56; O   _1 -0.88; O   _2 -0.88; H   _1 -0.44; 
@             H   _2 -0.44; H   _1 -0.44; H   _2 -0.44; H      -0.44; 
 -----------------------------------------------------------------------------
   6  Screening settings (-IFTHRS, JTDIIS, DIFDEN, times)  -10    6    T  2.76D+01  2.76D+01
@  6  -434.235168923       1.59D-02  -3.39D-04    16  11   3   2
      Virial theorem: -V/T =      2.001616
@    MULPOP   C       1.92; C   _1  0.13; C   _2  0.13; C   _1  0.50; C   _2  0.50; C       0.26; N       0.54; O   _1 -0.88; O   _2 -0.88; H   _1 -0.44; 
@             H   _2 -0.44; H   _1 -0.44; H   _2 -0.44; H      -0.44; 
 -----------------------------------------------------------------------------
   7  Screening settings (-IFTHRS, JTDIIS, DIFDEN, times)  -13    7    F  2.79D+01  2.79D+01
@  7  -434.235203621       6.47D-03  -3.47D-05    16  11   3   2
      Virial theorem: -V/T =      2.001655
@    MULPOP   C       1.92; C   _1  0.12; C   _2  0.12; C   _1  0.49; C   _2  0.49; C       0.26; N       0.54; O   _1 -0.88; O   _2 -0.88; H   _1 -0.44; 
@             H   _2 -0.44; H   _1 -0.44; H   _2 -0.44; H      -0.44; 
 -----------------------------------------------------------------------------
   8  Screening settings (-IFTHRS, JTDIIS, DIFDEN, times)  -13    8    T  2.78D+01  2.79D+01
@  8  -434.235209162       2.14D-03  -5.54D-06    16  11   3   2
      Virial theorem: -V/T =      2.001643
@    MULPOP   C       1.93; C   _1  0.12; C   _2  0.12; C   _1  0.49; C   _2  0.49; C       0.26; N       0.54; O   _1 -0.88; O   _2 -0.88; H   _1 -0.44; 
@             H   _2 -0.44; H   _1 -0.44; H   _2 -0.44; H      -0.44; 
 -----------------------------------------------------------------------------
   9  Screening settings (-IFTHRS, JTDIIS, DIFDEN, times)  -13    9    T  2.87D+01  2.87D+01
@  9  -434.235209747       6.63D-04  -5.85D-07    16  11   3   2
      Virial theorem: -V/T =      2.001639
@    MULPOP   C       1.93; C   _1  0.12; C   _2  0.12; C   _1  0.49; C   _2  0.49; C       0.26; N       0.54; O   _1 -0.88; O   _2 -0.88; H   _1 -0.44; 
@             H   _2 -0.44; H   _1 -0.44; H   _2 -0.44; H      -0.44; 
 -----------------------------------------------------------------------------
  10  Screening settings (-IFTHRS, JTDIIS, DIFDEN, times)  -13   10    T  2.84D+01  2.84D+01
@ 10  -434.235209799       2.06D-04  -5.18D-08    16  11   3   2
      Virial theorem: -V/T =      2.001641
@    MULPOP   C       1.93; C   _1  0.12; C   _2  0.12; C   _1  0.49; C   _2  0.49; C       0.26; N       0.54; O   _1 -0.88; O   _2 -0.88; H   _1 -0.44; 
@             H   _2 -0.44; H   _1 -0.44; H   _2 -0.44; H      -0.44; 
 -----------------------------------------------------------------------------
  11  Screening settings (-IFTHRS, JTDIIS, DIFDEN, times)  -13   11    T  2.77D+01  2.77D+01
@ 11  -434.235209807       7.91D-05  -7.35D-09    16  11   3   2
      Virial theorem: -V/T =      2.001641
@    MULPOP   C       1.93; C   _1  0.12; C   _2  0.12; C   _1  0.49; C   _2  0.49; C       0.26; N       0.54; O   _1 -0.88; O   _2 -0.88; H   _1 -0.44; 
@             H   _2 -0.44; H   _1 -0.44; H   _2 -0.44; H      -0.44; 
 -----------------------------------------------------------------------------
  12  Screening settings (-IFTHRS, JTDIIS, DIFDEN, times)  -13   12    T  2.78D+01  2.78D+01
@ 12  -434.235209808       3.20D-05  -1.30D-09    16  11   3   2
      Virial theorem: -V/T =      2.001641
@    MULPOP   C       1.93; C   _1  0.12; C   _2  0.12; C   _1  0.49; C   _2  0.49; C       0.26; N       0.54; O   _1 -0.88; O   _2 -0.88; H   _1 -0.44; 
@             H   _2 -0.44; H   _1 -0.44; H   _2 -0.44; H      -0.44; 
 -----------------------------------------------------------------------------
  13  Screening settings (-IFTHRS, JTDIIS, DIFDEN, times)  -13   13    T  2.76D+01  2.76D+01
@ 13  -434.235209808       1.93D-05  -2.08D-10    16  11   3   2
      Virial theorem: -V/T =      2.001641
@    MULPOP   C       1.93; C   _1  0.12; C   _2  0.12; C   _1  0.49; C   _2  0.49; C       0.26; N       0.54; O   _1 -0.88; O   _2 -0.88; H   _1 -0.44; 
@             H   _2 -0.44; H   _1 -0.44; H   _2 -0.44; H      -0.44; 
 -----------------------------------------------------------------------------
  14  Screening settings (-IFTHRS, JTDIIS, DIFDEN, times)  -13   14    T  2.76D+01  2.76D+01
@ 14  -434.235209808       6.33D-06  -1.02D-10    16  11   3   2
      Virial theorem: -V/T =      2.001641
@    MULPOP   C       1.93; C   _1  0.12; C   _2  0.12; C   _1  0.49; C   _2  0.49; C       0.26; N       0.54; O   _1 -0.88; O   _2 -0.88; H   _1 -0.44; 
@             H   _2 -0.44; H   _1 -0.44; H   _2 -0.44; H      -0.44; 
 -----------------------------------------------------------------------------
  15  Screening settings (-IFTHRS, JTDIIS, DIFDEN, times)  -13   15    T  2.75D+01  2.75D+01
@ 15  -434.235209808       2.25D-06  -2.31D-11    16  11   3   2
      Virial theorem: -V/T =      2.001641
@    MULPOP   C       1.93; C   _1  0.12; C   _2  0.12; C   _1  0.49; C   _2  0.49; C       0.26; N       0.54; O   _1 -0.88; O   _2 -0.88; H   _1 -0.44; 
@             H   _2 -0.44; H   _1 -0.44; H   _2 -0.44; H      -0.44; 
 -----------------------------------------------------------------------------
  16  Screening settings (-IFTHRS, JTDIIS, DIFDEN, times)  -13   16    T  2.74D+01  2.74D+01
@ 16  -434.235209808       1.03D-06  -2.96D-12    16  11   3   2
      Virial theorem: -V/T =      2.001641
@    MULPOP   C       1.93; C   _1  0.12; C   _2  0.12; C   _1  0.49; C   _2  0.49; C       0.26; N       0.54; O   _1 -0.88; O   _2 -0.88; H   _1 -0.44; 
@             H   _2 -0.44; H   _1 -0.44; H   _2 -0.44; H      -0.44; 
 -----------------------------------------------------------------------------
  17  Screening settings (-IFTHRS, JTDIIS, DIFDEN, times)  -13   17    T  2.73D+01  2.73D+01
@ 17  -434.235209808       4.92D-07   7.16D-12    16  11   3   2

@ *** DIIS converged in  17 iterations !
@     Converged SCF energy, gradient:   -434.235209808191    4.92D-07
    - total time used in SIRFCK :              0.00 seconds

 --- Writing SIRIFC interface file

 CPU and wall time for SCF :     472.031     472.154


 ----- Output from SIRIUS MP2 module -----

 Reference: H.J.Aa.Jensen, P.Jorgensen, H.Agren, and J.Olsen,
            J. Chem. Phys. 88, 3834 (1988); 89, 5354 (1988)

 Checking that the closed shell orbitals are canonical Hartree-Fock orbitals

    Number of electrons  :   64
    Closed shell orbitals:   16   11    3    2

 Generating Fock matrix

 Hartree-Fock electronic energy:        -849.746990271173
 Hartree-Fock total      energy:        -434.235209808180

 Hartree-Fock orbital energies, symmetry 1 ( A1 ),   16 occupied SCF orbitals

       -20.61097272   -15.85958125   -11.31291453   -11.28425396   -11.28309616
       -11.27361768    -1.61538439    -1.20696096    -1.10799292    -0.97019024
        -0.83150611    -0.78585898    -0.71028027    -0.65187471    -0.55528048
        -0.50204721     0.02650196     0.04402772     0.06211767     0.10453680
         0.13162687     0.13467759     0.15053618     0.15680742     0.17318662
         0.18057471     0.21566234     0.25923001     0.28803498     0.30490672
         0.31200806     0.34118591     0.35171452     0.36490053     0.37362720
         0.39817369     0.41230087     0.44247905     0.46933229     0.48767226
         0.51861570     0.56051203     0.58236755     0.58718401     0.63140131
         0.65480429     0.65999742     0.67955203     0.73063652     0.73626705
         0.74567421     0.83814323     0.88578829     0.93234613     0.96131133
         0.96530441     1.00860438     1.05815762     1.08887971     1.14178003
         1.27997198     1.36346496     1.38065382     1.44710351     1.49872380
         1.51466155     1.55560870     1.57165658     1.59985994     1.61089708
         1.68404216     1.72826089     1.74241578     1.76315915     1.87796364
         1.93864024     1.95978802     2.01200223     2.01865457     2.13686869
         2.16761844     2.23316292     2.31928645     2.37049246     2.44432319
         2.45750637     2.56334542     2.73760507     2.78785688     2.84014616
         2.89319396     2.97377259     3.04046352     3.16742386     3.27602345
         3.44179558     3.76825655     3.98666527     4.09250491     4.25185785
        19.81298331    20.34727440    20.46807307    20.62295912    23.35629153
        23.42927982    23.48583415    23.83390296    23.94194441    24.13905292
        27.11115233    31.29960853    35.82418526    39.73403021    39.85373230

 Hartree-Fock orbital energies, symmetry 2 ( B1 ),   11 occupied SCF orbitals

       -20.61102402   -11.28429677   -11.27370364    -1.40556906    -1.05590888
        -0.86897249    -0.73272966    -0.65714011    -0.62668193    -0.53219574
        -0.49298843     0.03601131     0.05992047     0.13029254     0.13303255
         0.15333588     0.17413166     0.18388641     0.21510970     0.26173277
         0.28929762     0.31370711     0.33329727     0.36401312     0.36944643
         0.39433488     0.42220663     0.43908327     0.47380177     0.57052929
         0.57946919     0.59392209     0.64980456     0.67097135     0.68146511
         0.70072782     0.75304086     0.76116793     0.82908447     0.84289686
         0.87004119     0.93656455     1.01529569     1.14217846     1.21068917
         1.25441519     1.30892462     1.41583778     1.42814468     1.48644973
         1.57403205     1.59375714     1.61482652     1.63809354     1.71498957
         1.76220266     1.77152315     1.79612866     1.89517570     1.92686673
         2.00485922     2.09668058     2.23826905     2.26604286     2.33878112
         2.35034665     2.39021883     2.53478528     2.59194660     2.73935954
         2.89859925     2.93433996     3.12172275     3.29027781     3.34278575
         3.41268814     3.76179558     3.86737091     4.24086608    20.30777768
        20.48670138    22.92438222    23.34646690    23.39988123    23.93938854
        24.12328676    24.31195457    31.44947754    35.57001213    39.65202686
        40.04634936

 Hartree-Fock orbital energies, symmetry 3 ( B2 ),    3 occupied SCF orbitals

        -0.72550263    -0.53604835    -0.37801257     0.02824056     0.10685566
         0.12787911     0.13911810     0.18311950     0.19579507     0.24732146
         0.31954712     0.34490695     0.37305356     0.44606234     0.53453029
         0.58830604     0.64269059     0.71668447     0.78264906     0.83903138
         0.87565158     0.92570260     0.92744245     0.98986870     1.14830162
         1.28539904     1.30818072     1.47131970     1.48860303     1.62210309
         1.67518980     1.71052306     1.85209060     1.90150225     1.98032632
         2.08253965     2.17963565     2.29541046     2.53500278     2.70019207
         3.67534970     3.78437244    22.54841118    22.69967991    22.83435122
        23.02812759    30.58173002    39.42785569

 Hartree-Fock orbital energies, symmetry 4 ( A2 ),    2 occupied SCF orbitals

        -0.45632615    -0.36951362     0.08619655     0.13136401     0.18574623
         0.29950867     0.41341738     0.49075670     0.54887691     0.66304459
         0.73614908     0.89446798     0.90262201     0.94581708     1.03438096
         1.09731877     1.21484047     1.25278514     1.34406051     1.48947102
         1.66648965     1.68843397     1.85648733     2.00437338     2.11399054
         2.22247591     2.36010702     2.47505461     2.61348217     3.67269257
         4.00635139    22.69250972    22.85973785    39.50273474

    E(LUMO) :     0.02650196   (in symmetry 1)
  - E(HOMO) :    -0.36951362   (in symmetry 4)
  --------------------------
    gap     :     0.39601558

---> (Re)generating AOTWOINT


     ************************************************************************
     ************************** Output from HERINT **************************
     ************************************************************************


 Threshold for neglecting two-electron integrals:  1.00D-12
 HERMIT - Number of two-electron integrals written:   204185537 ( 23.6% )
 HERMIT - Megabytes written:                           3116.929

  Time used in TWOINT     is      39.16 seconds

 2-el. integral transformation level 5: Total CPU and WALL times (sec)     406.859     408.788

 MP2 move   0.989300 electrons to unoccupied HF orbitals


@   Hartree-Fock total energy   :          -434.2352098082
@   + MP2 contribution          :            -1.7242682881
@   = MP2 second order energy   :          -435.9594780963

 Natural orbital occupation numbers, symmetry 1 (irrep A1 )
 Sum =    32.00705362; RHF =    32.00000000; Difference =     0.00705362

         1.99928969     1.99907421     1.99876132     1.99875551     1.99875105
         1.99874449     1.98700856     1.98412894     1.97962349     1.97282310
         1.96908587     1.96857665     1.96537487     1.96220453     1.95521658
         1.94766253     0.04246525     0.03268124     0.02565207     0.02369646
         0.01917185     0.01866405     0.01711518     0.01650542     0.01379112
         0.01267639     0.01164937     0.00981782     0.00851027     0.00790470
         0.00742307     0.00663917     0.00566156     0.00446329     0.00308694
         0.00294335     0.00269076     0.00259845     0.00218587     0.00196362
         0.00185763     0.00166965     0.00156781     0.00130443     0.00119257
         0.00116175     0.00105974     0.00095880     0.00071596     0.00065023
         0.00061189     0.00053684     0.00049868     0.00046283     0.00043928
         0.00041632     0.00039919     0.00038772     0.00037706     0.00035111
         0.00034082     0.00032203     0.00031209     0.00028868     0.00026601
         0.00025787     0.00022665     0.00021172     0.00020069     0.00019521
         0.00018594     0.00018402     0.00017487     0.00016879     0.00016840
         0.00016148     0.00015558     0.00014923     0.00014099     0.00013273
         0.00012469     0.00012315     0.00012152     0.00011073     0.00010511
         0.00009347     0.00007703     0.00007097     0.00005689     0.00005466
         0.00005051     0.00003958     0.00003366     0.00002716     0.00002031
         0.00001799     0.00001457     0.00001226     0.00001092     0.00000933
         0.00000872     0.00000825     0.00000673     0.00000306     0.00000273
         0.00000190     0.00000099     0.00000055     0.00000035     0.00000018
         0.00000016     0.00000000    -0.00000010    -0.00000051    -0.00005586

 Natural orbital occupation numbers, symmetry 2 (irrep B1 )
 Sum =    21.95435971; RHF =    22.00000000; Difference =    -0.04564029

         1.99928956     1.99875701     1.99875062     1.98418738     1.98001776
         1.97277227     1.96289021     1.96069151     1.95483840     1.95437270
         1.94655272     0.03838702     0.02541898     0.02365932     0.01906893
         0.01660671     0.01596277     0.01508669     0.01120151     0.01048764
         0.00912680     0.00769341     0.00572449     0.00539550     0.00510805
         0.00398588     0.00312651     0.00272620     0.00241148     0.00212535
         0.00174440     0.00162066     0.00151789     0.00131695     0.00116811
         0.00101748     0.00096258     0.00069166     0.00064183     0.00056750
         0.00049296     0.00043982     0.00042343     0.00037452     0.00035138
         0.00034048     0.00030399     0.00029207     0.00027006     0.00026063
         0.00023646     0.00021135     0.00019892     0.00018804     0.00018271
         0.00017793     0.00017048     0.00016921     0.00015999     0.00015460
         0.00014358     0.00013378     0.00012836     0.00012582     0.00011871
         0.00011118     0.00009537     0.00008925     0.00006723     0.00005577
         0.00004544     0.00003711     0.00003062     0.00002800     0.00002358
         0.00001500     0.00001439     0.00001140     0.00001054     0.00000860
         0.00000468     0.00000346     0.00000180     0.00000123     0.00000057
         0.00000026     0.00000014    -0.00000004    -0.00000023    -0.00000068
        -0.00001667

 Natural orbital occupation numbers, symmetry 3 (irrep B2 )
 Sum =     6.07721513; RHF =     6.00000000; Difference =     0.07721513

         1.95115354     1.94412640     1.90916559     0.10234494     0.06624780
         0.02950841     0.01037468     0.01019244     0.00869355     0.00798264
         0.00617537     0.00528803     0.00452231     0.00386678     0.00341353
         0.00305110     0.00149251     0.00142594     0.00099988     0.00088816
         0.00085786     0.00065907     0.00061254     0.00049580     0.00047349
         0.00041533     0.00033218     0.00029037     0.00025155     0.00023155
         0.00019724     0.00019534     0.00018974     0.00017667     0.00015369
         0.00012973     0.00012196     0.00011121     0.00010323     0.00008373
         0.00008003     0.00006103     0.00003486     0.00001956     0.00001039
         0.00000713     0.00000497     0.00000125

 Natural orbital occupation numbers, symmetry 4 (irrep A2 )
 Sum =     3.96137154; RHF =     4.00000000; Difference =    -0.03862846

         1.91695076     1.90833457     0.06624446     0.01476229     0.01038879
         0.00927126     0.00794797     0.00571017     0.00513936     0.00404596
         0.00354959     0.00155090     0.00120444     0.00093155     0.00077893
         0.00072863     0.00067211     0.00056267     0.00040735     0.00036987
         0.00034203     0.00029723     0.00021241     0.00019697     0.00016127
         0.00013261     0.00011655     0.00010383     0.00009342     0.00006927
         0.00005119     0.00002049     0.00001744     0.00000520

 Time used for MP2 natural orbitals :     438.281 CPU seconds,     440.213 wall seconds.

 CPU and wall time for MP2 :     438.281     440.213


        SIRIUS MCSCF optimization (SIROPT)
 ================================================


 Fock matrix screening setting for SIRCNO: IFTHRS =    9


 ----- Output from SIRIUS CI module (CICTL) -----




 2-el. integral transformation level 0: Total CPU and WALL times (sec)     102.781     102.863


 --- SIRCI.CIST1: plus combination of all degenerate
                 configurations is used as start vectors.


 (CIST1) 18 lowest diagonal elements:

 Element no. Config.no.    Active energy      Total energy

         1 :          1    -17.1615454335   -434.0029784957
         2 :         22    -17.0662940939   -433.9077271561
         3 :         28    -16.9012457264   -433.7426787886
         4 :          5    -16.8842828290   -433.7257158912
         5 :          6    -16.8797333865   -433.7211664486
         6 :          3    -16.8501266141   -433.6915596763
         7 :          2    -16.7985715237   -433.6400045859
         8 :         24    -16.7948428877   -433.6362759499
         9 :         23    -16.7818508116   -433.6232838738
        10 :          7    -16.7733257337   -433.6147587959
        11 :         25    -16.7576476379   -433.5990807001
        12 :         19    -16.7291532400   -433.5705863022
        13 :         29    -16.6042533336   -433.4456863958
        14 :         12    -16.5868908982   -433.4283239604
        15 :         11    -16.5810019847   -433.4224350469
        16 :         27    -16.4736473212   -433.3150803834
        17 :         26    -16.4587158591   -433.3001489213
        18 :         13    -16.4494372805   -433.2908703427


 Convergence threshold for CI optimization :     0.00000500



 *** Reached maximum number of CI iterations:    3
              2 CI roots are not converged.


@ Final CI energies and residuals in symmetry 1 (irrep A1 )
@    1     -434.037742188890149       8.96D-03
@    2     -433.922762775339038       5.05D-03
@    3     -433.824721947749651       4.94D-02
@    4     -433.734340103267698       7.83D-02
@    5     -433.693035725089317       8.84D-02
@    6     -433.657088703858960       1.13D-01

   --- OUTPUT FROM SIRCNO     Keyword = FD+NO 


 Occupations of CAS natural orbitals:

 Symmetry  1 ( irrep A1  in C2v )

   1.999991631

 Symmetry  2 ( irrep B1  in C2v )

   1.999997075

 Symmetry  3 ( irrep B2  in C2v )

   1.009824667   0.990606202

 Symmetry  4 ( irrep A2  in C2v )

   1.993661531   1.962161747   0.043757146


 --- MACRO ITERATION  1 ---
 --------------------------

 2-el. integral transformation level 3: Total CPU and WALL times (sec)     100.969     100.997

 Fock matrix screening setting for this macro iteration: 10^( -9)

 Total MCSCF energy       :          -433.922762773225600  (MACRO    1)

 - Nuclear repulsion      :           415.511780462992704
 - Inactive energy        :          -832.353213523314366
 - Active energy          :           -17.081329712903937

 Norm of total gradient   :             1.284966578702
 -    of CI gradient      :             0.010106363713
 -    of orbital gradient :             1.284926834413
      Virial theorem: -V/T =      1.995081
@    MULPOP   C       1.90; C   _1  0.32; C   _2  0.32; C   _1  0.51; C   _2  0.51; C       0.58; N       0.14; O   _1 -0.95; O   _2 -0.95; H   _1 -0.49; 
@             H   _2 -0.49; H   _1 -0.47; H   _2 -0.47; H      -0.47; 

 (SIRNEO) iteration (  1,  4)
 Micro iteration termination criterion met, EVAL(ISTATE+1) = -7.52D-02

   --- OUTPUT FROM SIRCNO     Keyword = FD+NO 


 Occupations of CAS natural orbitals:

 Symmetry  1 ( irrep A1  in C2v )

   1.999957160

 Symmetry  2 ( irrep B1  in C2v )

   1.999951758

 Symmetry  3 ( irrep B2  in C2v )

   1.191144314   0.823836480

 Symmetry  4 ( irrep A2  in C2v )

   1.981306493   1.786521667   0.217282128


 --- MACRO ITERATION  2 ---
 --------------------------

 2-el. integral transformation level 3: Total CPU and WALL times (sec)     101.094     101.142

 Fock matrix screening setting for this macro iteration: 10^( -9)

 Total MCSCF energy       :          -434.031980969671338  (MACRO    2)

 - Nuclear repulsion      :           415.511780462992704
 - Inactive energy        :          -832.370400595192109
 - Active energy          :           -17.173360837471922

 Norm of total gradient   :             0.718209693110
 -    of CI gradient      :             0.089166683390
 -    of orbital gradient :             0.712653117477
      Virial theorem: -V/T =      1.997702
@    MULPOP   C       1.79; C   _1  0.31; C   _2  0.31; C   _1  0.46; C   _2  0.46; C       0.42; N       0.42; O   _1 -0.87; O   _2 -0.87; H   _1 -0.49; 
@             H   _2 -0.49; H   _1 -0.47; H   _2 -0.47; H      -0.49; 

 Residual norm when dim(red L) =  11
 NEO root     CSF        orbital          total
    1     0.05073823     0.06665496     0.08376904 converged

 (NEONEX) NEO auxiliary root no.  1 is converged.

 Residual norm when dim(red L) =  12
 NEO root     CSF        orbital          total
    2     0.08090158     0.04832480     0.09423563 converged

 (NEONEX) NEO vector is converged.

   --- OUTPUT FROM SIRCNO     Keyword = FD+NO 


 Occupations of CAS natural orbitals:

 Symmetry  1 ( irrep A1  in C2v )

   1.999941713

 Symmetry  2 ( irrep B1  in C2v )

   1.999941540

 Symmetry  3 ( irrep B2  in C2v )

   1.284081952   0.737337958

 Symmetry  4 ( irrep A2  in C2v )

   1.974474765   1.696863860   0.307358213


 --- MACRO ITERATION  3 ---
 --------------------------

 2-el. integral transformation level 3: Total CPU and WALL times (sec)     101.547     101.629

 Fock matrix screening setting for this macro iteration: 10^( -9)

 Total MCSCF energy       :          -434.064239023202333  (MACRO    3)

 - Nuclear repulsion      :           415.511780462992704
 - Inactive energy        :          -831.732888200993784
 - Active energy          :           -17.843131285201274

 Norm of total gradient   :             0.226912004507
 -    of CI gradient      :             0.065637081560
 -    of orbital gradient :             0.217211489828
      Virial theorem: -V/T =      2.000750
@    MULPOP   C       1.90; C   _1  0.15; C   _2  0.15; C   _1  0.52; C   _2  0.52; C       0.28; N       0.59; O   _1 -1.02; O   _2 -1.02; H   _1 -0.43; 
@             H   _2 -0.43; H   _1 -0.41; H   _2 -0.41; H      -0.39; 

 Residual norm when dim(red L) =  11
 NEO root     CSF        orbital          total
    1     0.01946081     0.04782389     0.05163184 converged

 (NEONEX) NEO auxiliary root no.  1 is converged.

 Residual norm when dim(red L) =  16
 NEO root     CSF        orbital          total
    2     0.02739475     0.01950595     0.03362967 converged

 (NEONEX) NEO vector is converged.

   --- OUTPUT FROM SIRCNO     Keyword = FD+NO 


 Occupations of CAS natural orbitals:

 Symmetry  1 ( irrep A1  in C2v )

   1.999842148

 Symmetry  2 ( irrep B1  in C2v )

   1.999923090

 Symmetry  3 ( irrep B2  in C2v )

   1.530289172   0.504500272

 Symmetry  4 ( irrep A2  in C2v )

   1.963490098   1.425306676   0.576648544


 --- MACRO ITERATION  4 ---
 --------------------------

 2-el. integral transformation level 3: Total CPU and WALL times (sec)     101.578     101.682

 Fock matrix screening setting for this macro iteration: 10^( -9)

 Total MCSCF energy       :          -434.070521094209255  (MACRO    4)

 - Nuclear repulsion      :           415.511780462992704
 - Inactive energy        :          -828.852241452786984
 - Active energy          :           -20.730060104414999

 Norm of total gradient   :             0.332831016265
 -    of CI gradient      :             0.057805792830
 -    of orbital gradient :             0.327772750093
      Virial theorem: -V/T =      2.000514
@    MULPOP   C       2.03; C   _1  0.10; C   _2  0.10; C   _1  0.49; C   _2  0.49; C       0.33; N       0.49; O   _1 -0.94; O   _2 -0.94; H   _1 -0.44; 
@             H   _2 -0.44; H   _1 -0.43; H   _2 -0.43; H      -0.42; 

 (SIRNEO) iteration (  4,  5)
 Micro iteration termination criterion met, EVAL(ISTATE+1) = -8.90D-03

   --- OUTPUT FROM SIRCNO     Keyword = FD+NO 


 Occupations of CAS natural orbitals:

 Symmetry  1 ( irrep A1  in C2v )

   1.997879449

 Symmetry  2 ( irrep B1  in C2v )

   1.999929619

 Symmetry  3 ( irrep B2  in C2v )

   1.539181766   0.494814503

 Symmetry  4 ( irrep A2  in C2v )

   1.965955318   1.416682683   0.585556663


 --- MACRO ITERATION  5 ---
 --------------------------

 2-el. integral transformation level 3: Total CPU and WALL times (sec)     101.234     101.253

 Fock matrix screening setting for this macro iteration: 10^( -9)

 Total MCSCF energy       :          -434.067638998197140  (MACRO    5)

 - Nuclear repulsion      :           415.511780462992704
 - Inactive energy        :          -828.743555764023313
 - Active energy          :           -20.835863697166538

 Norm of total gradient   :             0.426044780714
 -    of CI gradient      :             0.232048279435
 -    of orbital gradient :             0.357306242857
      Virial theorem: -V/T =      2.000355
@    MULPOP   C       2.09; C   _1  0.07; C   _2  0.07; C   _1  0.46; C   _2  0.46; C       0.41; N       0.46; O   _1 -0.94; O   _2 -0.94; H   _1 -0.43; 
@             H   _2 -0.43; H   _1 -0.43; H   _2 -0.43; H      -0.44; 

 (SIRSTP) Energy difference;
 actual, predicted and ratio:   0.002882096012115  -0.005491782951256   -0.524802

 (SIRSTP) step is too large -- backstep

   --- OUTPUT FROM SIRCNO     Keyword = FD+NO 


 Occupations of CAS natural orbitals:

 Symmetry  1 ( irrep A1  in C2v )

   1.999565010

 Symmetry  2 ( irrep B1  in C2v )

   1.999922665

 Symmetry  3 ( irrep B2  in C2v )

   1.549085552   0.486701619

 Symmetry  4 ( irrep A2  in C2v )

   1.962687694   1.406996097   0.595041363


 Optimization control: Step was too large, we backstep


 --- MACRO ITERATION  5 BACKSTEP NO.  1 ---

 2-el. integral transformation level 3: Total CPU and WALL times (sec)     101.453     101.520

 Fock matrix screening setting for this macro iteration: 10^( -9)

 Total MCSCF energy       :          -434.072726793264053  (MACRO    5)

 - Nuclear repulsion      :           415.511780462992704
 - Inactive energy        :          -831.262116803023218
 - Active energy          :           -18.322390453233549

 Norm of total gradient   :             0.050514338001
 -    of CI gradient      :             0.040672921075
 -    of orbital gradient :             0.029956832859
      Virial theorem: -V/T =      2.000403
@    MULPOP   C       2.07; C   _1  0.10; C   _2  0.10; C   _1  0.48; C   _2  0.48; C       0.33; N       0.50; O   _1 -0.94; O   _2 -0.94; H   _1 -0.44; 
@             H   _2 -0.44; H   _1 -0.43; H   _2 -0.43; H      -0.43; 

 Residual norm when dim(red L) =   8
 NEO root     CSF        orbital          total
    1     0.05432297     0.08323219     0.09939106 converged

 (NEONEX) NEO auxiliary root no.  1 is converged.

 (SIRNEO) iteration (  5, 11)
 Micro iteration termination criterion met, EVAL(ISTATE+1) = -2.36D-05

   --- OUTPUT FROM SIRCNO     Keyword = FD+NO 


 Occupations of CAS natural orbitals:

 Symmetry  1 ( irrep A1  in C2v )

   1.999284761

 Symmetry  2 ( irrep B1  in C2v )

   1.999926687

 Symmetry  3 ( irrep B2  in C2v )

   1.578157942   0.448031915

 Symmetry  4 ( irrep A2  in C2v )

   1.973516858   1.354281063   0.646800774


 --- MACRO ITERATION  6 ---
 --------------------------

 2-el. integral transformation level 3: Total CPU and WALL times (sec)     101.234     101.257

 Fock matrix screening setting for this macro iteration: 10^( -9)

 Total MCSCF energy       :          -434.074229979404151  (MACRO    6)

 - Nuclear repulsion      :           415.511780462992704
 - Inactive energy        :          -831.041968108076958
 - Active energy          :           -18.544042334319911

 Norm of total gradient   :             0.027238151125
 -    of CI gradient      :             0.012917421730
 -    of orbital gradient :             0.023980348049
      Virial theorem: -V/T =      2.000434
@    MULPOP   C       2.08; C   _1  0.10; C   _2  0.10; C   _1  0.46; C   _2  0.46; C       0.34; N       0.51; O   _1 -0.93; O   _2 -0.93; H   _1 -0.44; 
@             H   _2 -0.44; H   _1 -0.44; H   _2 -0.44; H      -0.43; 

 Residual norm when dim(red L) =   8
 NEO root     CSF        orbital          total
    1     0.02836676     0.07909240     0.08402548 converged

 (NEONEX) NEO auxiliary root no.  1 is converged.

 Residual norm when dim(red L) =  22
 NEO root     CSF        orbital          total
    2     0.00410016     0.00304313     0.00510607 converged

 (NEONEX) NEO vector is converged.

   --- OUTPUT FROM SIRCNO     Keyword = FD+NO 


 Occupations of CAS natural orbitals:

 Symmetry  1 ( irrep A1  in C2v )

   1.999376844

 Symmetry  2 ( irrep B1  in C2v )

   1.999853349

 Symmetry  3 ( irrep B2  in C2v )

   1.607674545   0.405140442

 Symmetry  4 ( irrep A2  in C2v )

   1.987316662   1.295265114   0.705373045


 --- MACRO ITERATION  7 ---
 --------------------------

 2-el. integral transformation level 3: Total CPU and WALL times (sec)     101.453     101.519

 Fock matrix screening setting for this macro iteration: 10^( -9)

 Total MCSCF energy       :          -434.074918474999606  (MACRO    7)

 - Nuclear repulsion      :           415.511780462992704
 - Inactive energy        :          -831.292564394373244
 - Active energy          :           -18.294134543619052

 Norm of total gradient   :             0.017641009127
 -    of CI gradient      :             0.012101235949
 -    of orbital gradient :             0.012836093313
      Virial theorem: -V/T =      2.000426
@    MULPOP   C       2.06; C   _1  0.10; C   _2  0.10; C   _1  0.46; C   _2  0.46; C       0.33; N       0.53; O   _1 -0.92; O   _2 -0.92; H   _1 -0.45; 
@             H   _2 -0.45; H   _1 -0.44; H   _2 -0.44; H      -0.43; 

 Residual norm when dim(red L) =   8
 NEO root     CSF        orbital          total
    1     0.06863107     0.05190093     0.08604609 converged

 (NEONEX) NEO auxiliary root no.  1 is converged.

 Residual norm when dim(red L) =  23
 NEO root     CSF        orbital          total
    2     0.00155820     0.00076555     0.00173610 converged

 (NEONEX) NEO vector is converged.

   --- OUTPUT FROM SIRCNO     Keyword = FD+NO 


 Occupations of CAS natural orbitals:

 Symmetry  1 ( irrep A1  in C2v )

   1.999948110

 Symmetry  2 ( irrep B1  in C2v )

   1.999972323

 Symmetry  3 ( irrep B2  in C2v )

   1.547578642   0.457505637

 Symmetry  4 ( irrep A2  in C2v )

   1.995078005   1.228824515   0.771092768


 --- MACRO ITERATION  8 ---
 --------------------------

 2-el. integral transformation level 3: Total CPU and WALL times (sec)     101.609     101.637

 Fock matrix screening setting for this macro iteration: 10^( -9)

 Total MCSCF energy       :          -434.064270203428009  (MACRO    8)

 - Nuclear repulsion      :           415.511780462992704
 - Inactive energy        :          -831.031665696545360
 - Active energy          :           -18.544384969875349

 Norm of total gradient   :             0.166158436433
 -    of CI gradient      :             0.146086805983
 -    of orbital gradient :             0.079166098271
      Virial theorem: -V/T =      2.000119
@    MULPOP   C       2.05; C   _1  0.10; C   _2  0.10; C   _1  0.44; C   _2  0.44; C       0.34; N       0.54; O   _1 -0.88; O   _2 -0.88; H   _1 -0.46; 
@             H   _2 -0.46; H   _1 -0.44; H   _2 -0.44; H      -0.45; 

 (SIRSTP) Energy difference;
 actual, predicted and ratio:   0.010648271571597  -0.002770165079738   -3.843912

 (SIRSTP) step is too large -- backstep

   --- OUTPUT FROM SIRCNO     Keyword = FD+NO 


 Occupations of CAS natural orbitals:

 Symmetry  1 ( irrep A1  in C2v )

   1.999875486

 Symmetry  2 ( irrep B1  in C2v )

   1.999996891

 Symmetry  3 ( irrep B2  in C2v )

   1.561349070   0.439553495

 Symmetry  4 ( irrep A2  in C2v )

   1.999283865   1.255819148   0.744122046


 Optimization control: Step was too large, we backstep


 --- MACRO ITERATION  8 BACKSTEP NO.  1 ---

 2-el. integral transformation level 3: Total CPU and WALL times (sec)     101.422     101.493

 Fock matrix screening setting for this macro iteration: 10^( -9)

 Total MCSCF energy       :          -434.072188855250431  (MACRO    8)

 - Nuclear repulsion      :           415.511780462992704
 - Inactive energy        :          -831.105162947034046
 - Active energy          :           -18.478806371209110

 Norm of total gradient   :             0.083688904008
 -    of CI gradient      :             0.073719085319
 -    of orbital gradient :             0.039614758789
      Virial theorem: -V/T =      2.000272
[...]

       No.  Residual tot.,    conf., and orb.    Bnorm      Frequency 
      ----------------------------------------------------------------
         1    1.00455D+01  5.89D+00  8.14D+00  1.48D+03    1.16800D-01

 ** RSPCTL MICROITERATION NUMBER    7

       No.  Residual tot.,    conf., and orb.    Bnorm      Frequency 
      ----------------------------------------------------------------
         1    1.04190D+01  7.12D+00  7.61D+00  1.63D+03    1.16800D-01

 ** RSPCTL MICROITERATION NUMBER    8

       No.  Residual tot.,    conf., and orb.    Bnorm      Frequency 
      ----------------------------------------------------------------
         1    8.99602D+00  8.04D+00  4.03D+00  1.69D+03    1.16800D-01

 ** RSPCTL MICROITERATION NUMBER    9

 *** INFO, negative eigenvalues in reduced matrix. Symmetry  1,  triplet       F Dimension of reduced matrix =    20

 GP * SOLUTION vector at frequency     0.11680 a.u.
 after   10 linear transformations is      1.82192182D+04
 INERTIA (POS,ZER,NEG) of reduced matrix is   19    0    1
 Determinant of reduced matrix is -2.61 * 10 **-21.0

       No.  Residual tot.,    conf., and orb.    Bnorm      Frequency 
      ----------------------------------------------------------------
         1    1.21783D+01  1.07D+01  5.89D+00  1.81D+03    1.16800D-01

 ** RSPCTL MICROITERATION NUMBER   10

 *** INFO, negative eigenvalues in reduced matrix. Symmetry  1,  triplet       F Dimension of reduced matrix =    22

 GP * SOLUTION vector at frequency     0.11680 a.u.
 after   11 linear transformations is      1.83506867D+04
 INERTIA (POS,ZER,NEG) of reduced matrix is   21    0    1
 Determinant of reduced matrix is -5.65 * 10 **-22.0

       No.  Residual tot.,    conf., and orb.    Bnorm      Frequency 
      ----------------------------------------------------------------
         1    9.61813D+00  1.27D+00  9.53D+00  2.04D+03    1.16800D-01

 ** RSPCTL MICROITERATION NUMBER   11

 *** INFO, negative eigenvalues in reduced matrix. Symmetry  1,  triplet       F Dimension of reduced matrix =    24

 GP * SOLUTION vector at frequency     0.11680 a.u.
 after   12 linear transformations is      1.86066405D+04
 INERTIA (POS,ZER,NEG) of reduced matrix is   23    0    1
 Determinant of reduced matrix is -1.83 * 10 **-25.0

       No.  Residual tot.,    conf., and orb.    Bnorm      Frequency 
      ----------------------------------------------------------------
         1    2.27459D+01  1.23D+01  1.92D+01  2.28D+03    1.16800D-01

 ** RSPCTL MICROITERATION NUMBER   12

 *** INFO, negative eigenvalues in reduced matrix. Symmetry  1,  triplet       F Dimension of reduced matrix =    26

 GP * SOLUTION vector at frequency     0.11680 a.u.
 after   13 linear transformations is      1.93642579D+04
 INERTIA (POS,ZER,NEG) of reduced matrix is   25    0    1
 Determinant of reduced matrix is -4.38 * 10 **-28.0

       No.  Residual tot.,    conf., and orb.    Bnorm      Frequency 
      ----------------------------------------------------------------
         1    5.94807D+01  4.99D+01  3.24D+01  2.83D+03    1.16800D-01

 ** RSPCTL MICROITERATION NUMBER   13

 *** INFO, negative eigenvalues in reduced matrix. Symmetry  1,  triplet       F Dimension of reduced matrix =    28

 GP * SOLUTION vector at frequency     0.11680 a.u.
 after   14 linear transformations is      1.73496876D+04
 INERTIA (POS,ZER,NEG) of reduced matrix is   26    0    2
 Determinant of reduced matrix is  2.68 * 10 **-28.0

       No.  Residual tot.,    conf., and orb.    Bnorm      Frequency 
      ----------------------------------------------------------------
         1    3.65190D+01  1.87D+01  3.13D+01  1.81D+03    1.16800D-01

 ** RSPCTL MICROITERATION NUMBER   14

 *** INFO, negative eigenvalues in reduced matrix. Symmetry  1,  triplet       F Dimension of reduced matrix =    30

 GP * SOLUTION vector at frequency     0.11680 a.u.
 after   15 linear transformations is      1.79009163D+04
 INERTIA (POS,ZER,NEG) of reduced matrix is   28    0    2
 Determinant of reduced matrix is  3.35 * 10 **-31.0

       No.  Residual tot.,    conf., and orb.    Bnorm      Frequency 
      ----------------------------------------------------------------
         1    1.12108D+01  7.80D+00  8.06D+00  1.89D+03    1.16800D-01

 ** RSPCTL MICROITERATION NUMBER   15

 *** INFO, negative eigenvalues in reduced matrix. Symmetry  1,  triplet       F Dimension of reduced matrix =    32

 GP * SOLUTION vector at frequency     0.11680 a.u.
 after   16 linear transformations is      1.79574022D+04
 INERTIA (POS,ZER,NEG) of reduced matrix is   30    0    2
 Determinant of reduced matrix is  2.97 * 10 **-34.0

       No.  Residual tot.,    conf., and orb.    Bnorm      Frequency 
      ----------------------------------------------------------------
         1    9.30948D+00  7.60D+00  5.38D+00  1.82D+03    1.16800D-01

 ** RSPCTL MICROITERATION NUMBER   16

 *** INFO, negative eigenvalues in reduced matrix. Symmetry  1,  triplet       F Dimension of reduced matrix =    34

 GP * SOLUTION vector at frequency     0.11680 a.u.
 after   17 linear transformations is      1.80589437D+04
 INERTIA (POS,ZER,NEG) of reduced matrix is   32    0    2
 Determinant of reduced matrix is  4.69 * 10 **-35.0

       No.  Residual tot.,    conf., and orb.    Bnorm      Frequency 
      ----------------------------------------------------------------
         1    6.60596D+00  2.87D+00  5.95D+00  1.78D+03    1.16800D-01

 ** RSPCTL MICROITERATION NUMBER   17

 *** INFO, negative eigenvalues in reduced matrix. Symmetry  1,  triplet       F Dimension of reduced matrix =    36

 GP * SOLUTION vector at frequency     0.11680 a.u.
 after   18 linear transformations is      1.80769136D+04
 INERTIA (POS,ZER,NEG) of reduced matrix is   34    0    2
 Determinant of reduced matrix is  7.78 * 10 **-38.0

       No.  Residual tot.,    conf., and orb.    Bnorm      Frequency 
      ----------------------------------------------------------------
         1    4.30552D+00  3.27D+00  2.80D+00  1.74D+03    1.16800D-01

 ** RSPCTL MICROITERATION NUMBER   18

 *** INFO, negative eigenvalues in reduced matrix. Symmetry  1,  triplet       F Dimension of reduced matrix =    38

 GP * SOLUTION vector at frequency     0.11680 a.u.
 after   19 linear transformations is      1.80909312D+04
 INERTIA (POS,ZER,NEG) of reduced matrix is   36    0    2
 Determinant of reduced matrix is  2.54 * 10 **-38.0

       No.  Residual tot.,    conf., and orb.    Bnorm      Frequency 
      ----------------------------------------------------------------
         1    3.98898D+00  8.85D-01  3.89D+00  1.73D+03    1.16800D-01

 ** RSPCTL MICROITERATION NUMBER   19

 *** INFO, negative eigenvalues in reduced matrix. Symmetry  1,  triplet       F Dimension of reduced matrix =    40

 GP * SOLUTION vector at frequency     0.11680 a.u.
 after   20 linear transformations is      1.81009736D+04
 INERTIA (POS,ZER,NEG) of reduced matrix is   38    0    2
 Determinant of reduced matrix is  1.08 * 10 **-41.0

       No.  Residual tot.,    conf., and orb.    Bnorm      Frequency 
      ----------------------------------------------------------------
         1    2.17747D+00  1.34D+00  1.71D+00  1.69D+03    1.16800D-01

 ** RSPCTL MICROITERATION NUMBER   20

 *** INFO, negative eigenvalues in reduced matrix. Symmetry  1,  triplet       F Dimension of reduced matrix =    42

 GP * SOLUTION vector at frequency     0.11680 a.u.
 after   21 linear transformations is      1.81028483D+04
 INERTIA (POS,ZER,NEG) of reduced matrix is   40    0    2
 Determinant of reduced matrix is  1.60 * 10 **-44.0

       No.  Residual tot.,    conf., and orb.    Bnorm      Frequency 
      ----------------------------------------------------------------
         1    1.71650D+00  1.54D+00  7.56D-01  1.67D+03    1.16800D-01

 ** RSPCTL MICROITERATION NUMBER   21

 *** INFO, negative eigenvalues in reduced matrix. Symmetry  1,  triplet       F Dimension of reduced matrix =    44

 GP * SOLUTION vector at frequency     0.11680 a.u.
 after   22 linear transformations is      1.81067181D+04
 INERTIA (POS,ZER,NEG) of reduced matrix is   42    0    2
 Determinant of reduced matrix is  1.69 * 10 **-45.0

       No.  Residual tot.,    conf., and orb.    Bnorm      Frequency 
      ----------------------------------------------------------------
         1    1.44435D+00  9.27D-01  1.11D+00  1.66D+03    1.16800D-01

 *** THE REQUESTED    1 SOLUTION VECTORS CONVERGED

 Convergence of RSP solution vectors, threshold = 1.00D-03
 ---------------------------------------------------------------
 (dimension of paired reduced space:   44)
 RSP solution vector no.    1; norm of residual   8.70D-04

 *** RSPCTL MICROITERATIONS CONVERGED
    YDIPLEN     YDIPLEN      freq1     freq2                Norm
 ---------------------------------------------------------------
                          0.058400  0.058400       1659.55939985
  Time used in CRVEC2     is       2 hours 54 minutes 21 seconds


 ----- CALCULATING CONTRIBUTIONS TO SECOND HYPERPOLARIZABILITY -----


   Contribution                Term         Accumulated
 ------------------------------------------------------
 Na T[4] Nb Nc Nd363838982.01117057  363838982.01117057
 Na T[3] Nx Nyz -259459284.21924418  104379697.79192640
 Na X[3] Ny Nz    16435749.81743276  120815447.60935916
 Nx A[3] Ny Nz     5478583.27247759  126294030.88183676
 Na X[2] Nyz      -9332523.03897965  116961507.84285709
 Nx A[2] Nyz     -10439712.19419923  106521795.64865786

@ Cubic response function value in a.u. for
@ A operator, symmetry, frequency:   ZDIPLEN    1 -0.058400
@ B operator, symmetry, frequency:   ZDIPLEN    1  0.058400
@ C operator, symmetry, frequency:   ZDIPLEN    1 -0.058400
@ D operator, symmetry, frequency:   ZDIPLEN    1  0.058400

@ << A; B, C, D >>  =   106521795.64865786



   Contribution                Term         Accumulated
 ------------------------------------------------------
 Na T[4] Nb Nc Nd  1176781.12646860    1176781.12646860
 Na T[3] Nx Nyz    1538365.40914375    2715146.53561235
 Na X[3] Ny Nz     1024617.45917074    3739763.99478308
 Nx A[3] Ny Nz     1172222.15591834    4911986.15070143
 Na X[2] Nyz        922357.14714719    5834343.29784861
 Nx A[2] Nyz      -2026232.75752582    3808110.54032280

@ Cubic response function value in a.u. for
@ A operator, symmetry, frequency:   XDIPLEN    2 -0.058400
@ B operator, symmetry, frequency:   XDIPLEN    2  0.058400
@ C operator, symmetry, frequency:   ZDIPLEN    1 -0.058400
@ D operator, symmetry, frequency:   ZDIPLEN    1  0.058400

@ << A; B, C, D >>  =     3808110.54032280



   Contribution                Term         Accumulated
 ------------------------------------------------------
 Na T[4] Nb Nc Nd    81005.89077640      81005.89077640
 Na T[3] Nx Nyz      35698.70697874     116704.59775514
 Na X[3] Ny Nz      173422.12243504     290126.72019018
 Nx A[3] Ny Nz       81320.51954337     371447.23973355
 Na X[2] Nyz         20249.82752351     391697.06725706
 Nx A[2] Nyz       -204381.31634053     187315.75091653

@ Cubic response function value in a.u. for
@ A operator, symmetry, frequency:   YDIPLEN    3 -0.058400
@ B operator, symmetry, frequency:   YDIPLEN    3  0.058400
@ C operator, symmetry, frequency:   ZDIPLEN    1 -0.058400
@ D operator, symmetry, frequency:   ZDIPLEN    1  0.058400

@ << A; B, C, D >>  =      187315.75091653



   Contribution                Term         Accumulated
 ------------------------------------------------------
 Na T[4] Nb Nc Nd   494165.11856652     494165.11856652
 Na T[3] Nx Nyz   -1789174.47905479   -1295009.36048828
 Na X[3] Ny Nz       65792.89288062   -1229216.46760765
 Nx A[3] Ny Nz      -30517.96160075   -1259734.42920840
 Na X[2] Nyz       -362361.63662851   -1622096.06583691
 Nx A[2] Nyz        -61474.74360046   -1683570.80943737

@ Cubic response function value in a.u. for
@ A operator, symmetry, frequency:   XDIPLEN    2 -0.058400
@ B operator, symmetry, frequency:   ZDIPLEN    1  0.058400
@ C operator, symmetry, frequency:   XDIPLEN    2 -0.058400
@ D operator, symmetry, frequency:   ZDIPLEN    1  0.058400

@ << A; B, C, D >>  =    -1683570.80943737



   Contribution                Term         Accumulated
 ------------------------------------------------------
 Na T[4] Nb Nc Nd   125531.17572482     125531.17572482
 Na T[3] Nx Nyz      63773.08276266     189304.25848748
 Na X[3] Ny Nz       67717.39711700     257021.65560448
 Nx A[3] Ny Nz      -17919.89091945     239101.76468503
 Na X[2] Nyz        -16934.96824044     222166.79644459
 Nx A[2] Nyz        -99372.39210221     122794.40434238

@ Cubic response function value in a.u. for
@ A operator, symmetry, frequency:   YDIPLEN    3 -0.058400
@ B operator, symmetry, frequency:   ZDIPLEN    1  0.058400
@ C operator, symmetry, frequency:   YDIPLEN    3 -0.058400
@ D operator, symmetry, frequency:   ZDIPLEN    1  0.058400

@ << A; B, C, D >>  =      122794.40434238



   Contribution                Term         Accumulated
 ------------------------------------------------------
 Na T[4] Nb Nc Nd   708764.88840990     708764.88840990
 Na T[3] Nx Nyz   -1517203.07838335    -808438.18997345
 Na X[3] Ny Nz     -159466.65371570    -967904.84368915
 Nx A[3] Ny Nz        -706.62534427    -968611.46903343
 Na X[2] Nyz       -196553.22130652   -1165164.69033995
 Nx A[2] Nyz       -510566.89519710   -1675731.58553704

@ Cubic response function value in a.u. for
@ A operator, symmetry, frequency:   ZDIPLEN    1 -0.058400
@ B operator, symmetry, frequency:   XDIPLEN    2  0.058400
@ C operator, symmetry, frequency:   ZDIPLEN    1 -0.058400
@ D operator, symmetry, frequency:   XDIPLEN    2  0.058400

@ << A; B, C, D >>  =    -1675731.58553704



   Contribution                Term         Accumulated
 ------------------------------------------------------
 Na T[4] Nb Nc Nd   484817.21408485     484817.21408485
 Na T[3] Nx Nyz    -636635.81516433    -151818.60107947
 Na X[3] Ny Nz      168909.95811521      17091.35703573
 Nx A[3] Ny Nz       56303.31937174      73394.67640747
 Na X[2] Nyz        -32713.84678667      40680.82962080
 Nx A[2] Nyz        -90905.21635206     -50224.38673127

@ Cubic response function value in a.u. for
@ A operator, symmetry, frequency:   XDIPLEN    2 -0.058400
@ B operator, symmetry, frequency:   XDIPLEN    2  0.058400
@ C operator, symmetry, frequency:   XDIPLEN    2 -0.058400
@ D operator, symmetry, frequency:   XDIPLEN    2  0.058400

@ << A; B, C, D >>  =      -50224.38673127



   Contribution                Term         Accumulated
 ------------------------------------------------------
 Na T[4] Nb Nc Nd    -3976.30342921      -3976.30342921
 Na T[3] Nx Nyz      -5074.90676119      -9051.21019040
 Na X[3] Ny Nz       11844.85112032       2793.64092991
 Nx A[3] Ny Nz        8043.00436254      10836.64529246
 Na X[2] Nyz         -8321.75144416       2514.89384829
 Nx A[2] Nyz        -20926.48017574     -18411.58632745

@ Cubic response function value in a.u. for
@ A operator, symmetry, frequency:   YDIPLEN    3 -0.058400
@ B operator, symmetry, frequency:   YDIPLEN    3  0.058400
@ C operator, symmetry, frequency:   XDIPLEN    2 -0.058400
@ D operator, symmetry, frequency:   XDIPLEN    2  0.058400

@ << A; B, C, D >>  =      -18411.58632745



   Contribution                Term         Accumulated
 ------------------------------------------------------
 Na T[4] Nb Nc Nd    -3046.68655751      -3046.68655751
 Na T[3] Nx Nyz        161.20872734      -2885.47783017
 Na X[3] Ny Nz        9845.25517756       6959.77734738
 Nx A[3] Ny Nz        7025.26218725      13985.03953463
 Na X[2] Nyz        -11301.76068351       2683.27885112
 Nx A[2] Nyz        -21486.62723426     -18803.34838314

@ Cubic response function value in a.u. for
@ A operator, symmetry, frequency:   YDIPLEN    3 -0.058400
@ B operator, symmetry, frequency:   XDIPLEN    2  0.058400
@ C operator, symmetry, frequency:   YDIPLEN    3 -0.058400
@ D operator, symmetry, frequency:   XDIPLEN    2  0.058400

@ << A; B, C, D >>  =      -18803.34838314



   Contribution                Term         Accumulated
 ------------------------------------------------------
 Na T[4] Nb Nc Nd   322473.99078806     322473.99078806
 Na T[3] Nx Nyz      65772.80624056     388246.79702862
 Na X[3] Ny Nz      -96755.28919436     291491.50783425
 Nx A[3] Ny Nz        8240.59356032     299732.10139458
 Na X[2] Nyz       -146249.26276111     153482.83863347
 Nx A[2] Nyz        -25640.65536785     127842.18326562

@ Cubic response function value in a.u. for
@ A operator, symmetry, frequency:   ZDIPLEN    1 -0.058400
@ B operator, symmetry, frequency:   YDIPLEN    3  0.058400
@ C operator, symmetry, frequency:   ZDIPLEN    1 -0.058400
@ D operator, symmetry, frequency:   YDIPLEN    3  0.058400

@ << A; B, C, D >>  =      127842.18326562



   Contribution                Term         Accumulated
 ------------------------------------------------------
 Na T[4] Nb Nc Nd    -3559.53793960      -3559.53793960
 Na T[3] Nx Nyz      -6354.02635202      -9913.56429162
 Na X[3] Ny Nz       15497.38598283       5583.82169121
 Nx A[3] Ny Nz        1422.28486621       7006.10655742
 Na X[2] Nyz        -13748.82730719      -6742.72074978
 Nx A[2] Nyz        -11933.20920190     -18675.92995168

@ Cubic response function value in a.u. for
@ A operator, symmetry, frequency:   XDIPLEN    2 -0.058400
@ B operator, symmetry, frequency:   YDIPLEN    3  0.058400
@ C operator, symmetry, frequency:   XDIPLEN    2 -0.058400
@ D operator, symmetry, frequency:   YDIPLEN    3  0.058400

@ << A; B, C, D >>  =      -18675.92995168



   Contribution                Term         Accumulated
 ------------------------------------------------------
 Na T[4] Nb Nc Nd    -6084.23591338      -6084.23591338
 Na T[3] Nx Nyz     -10936.62486564     -17020.86077902
 Na X[3] Ny Nz       18661.79275357       1640.93197455
 Nx A[3] Ny Nz        6220.59758452       7861.52955908
 Na X[2] Nyz        -13667.08449699      -5805.55493792
 Nx A[2] Nyz        -21127.65865310     -26933.21359102

@ Cubic response function value in a.u. for
@ A operator, symmetry, frequency:   YDIPLEN    3 -0.058400
@ B operator, symmetry, frequency:   YDIPLEN    3  0.058400
@ C operator, symmetry, frequency:   YDIPLEN    3 -0.058400
@ D operator, symmetry, frequency:   YDIPLEN    3  0.058400

@ << A; B, C, D >>  =      -26933.21359102



  Summary of gamma values for a set of frequencies
 -------------------------------------------------

@ B-freq:  0.058400
@ C-freq: -0.058400
@ D-freq:  0.058400

@ gamma(X;X,X,X)      50224.3867
@ gamma(X;X,Y,Y)      18411.5863
@ gamma(X;Y,Y,X)      18411.5863
@ gamma(X;Y,X,Y)      18675.9300
@ gamma(X;X,Z,Z)   -3808110.5403
@ gamma(X;Z,Z,X)   -3808110.5403
@ gamma(X;Z,X,Z)    1683570.8094
@ gamma(Y;Y,X,X)      18411.5863
@ gamma(Y;X,X,Y)      18411.5863
@ gamma(Y;X,Y,X)      18803.3484
@ gamma(Y;Y,Y,Y)      26933.2136
@ gamma(Y;Y,Z,Z)    -187315.7509
@ gamma(Y;Z,Z,Y)    -187315.7509
@ gamma(Y;Z,Y,Z)    -122794.4043
@ gamma(Z;Z,X,X)   -3808110.5403
@ gamma(Z;X,X,Z)   -3808110.5403
@ gamma(Z;X,Z,X)    1675731.5855
@ gamma(Z;Z,Y,Y)    -187315.7509
@ gamma(Z;Y,Y,Z)    -187315.7509
@ gamma(Z;Y,Z,Y)    -127842.1833
@ gamma(Z;Z,Z,Z) -106521795.6487

@ Averaged gamma parallel to the applied field is -22139721.858597

  Total CPU  time used in RESPONSE:   7 hours 50 minutes  8 seconds
  Total wall time used in RESPONSE:   7 hours 50 minutes 22 seconds


                   .-------------------------------------------.
                   | End of Dynamic Property Section (RESPONS) |
                   `-------------------------------------------'

  Total CPU  time used in DALTON:  10 hours 49 minutes 38 seconds
  Total wall time used in DALTON:  10 hours 49 minutes 57 seconds

 
     Date and time (Linux)  : Sun Mar  1 17:43:40 2020
     Host name              : Lab2-333-NPs                            
