

     ************************************************************************
     *************** Dalton - An Electronic Structure Program ***************
     ************************************************************************

    This is output from DALTON release Dalton2018.1 (2019)
         ( Web site: http://daltonprogram.org )

   ----------------------------------------------------------------------------

    NOTE:
     
    Dalton is an experimental code for the evaluation of molecular
    properties using (MC)SCF, DFT, CI, and CC wave functions.
    The authors accept no responsibility for the performance of
    the code or for the correctness of the results.
     
    The code (in whole or part) is provided under a licence and
    is not to be reproduced for further distribution without
    the written permission of the authors or their representatives.
     
    See the home page "http://daltonprogram.org" for further information.
     
    If results obtained with this code are published,
    the appropriate citations would be both of:
     
       K. Aidas, C. Angeli, K. L. Bak, V. Bakken, R. Bast,
       L. Boman, O. Christiansen, R. Cimiraglia, S. Coriani,
       P. Dahle, E. K. Dalskov, U. Ekstroem,
       T. Enevoldsen, J. J. Eriksen, P. Ettenhuber, B. Fernandez,
       L. Ferrighi, H. Fliegl, L. Frediani, K. Hald, A. Halkier,
       C. Haettig, H. Heiberg, T. Helgaker, A. C. Hennum,
       H. Hettema, E. Hjertenaes, S. Hoest, I.-M. Hoeyvik,
       M. F. Iozzi, B. Jansik, H. J. Aa. Jensen, D. Jonsson,
       P. Joergensen, J. Kauczor, S. Kirpekar,
       T. Kjaergaard, W. Klopper, S. Knecht, R. Kobayashi, H. Koch,
       J. Kongsted, A. Krapp, K. Kristensen, A. Ligabue,
       O. B. Lutnaes, J. I. Melo, K. V. Mikkelsen, R. H. Myhre,
       C. Neiss, C. B. Nielsen, P. Norman, J. Olsen,
       J. M. H. Olsen, A. Osted, M. J. Packer, F. Pawlowski,
       T. B. Pedersen, P. F. Provasi, S. Reine, Z. Rinkevicius,
       T. A. Ruden, K. Ruud, V. Rybkin, P. Salek, C. C. M. Samson,
       A. Sanchez de Meras, T. Saue, S. P. A. Sauer,
       B. Schimmelpfennig, K. Sneskov, A. H. Steindal,
       K. O. Sylvester-Hvid, P. R. Taylor, A. M. Teale,
       E. I. Tellgren, D. P. Tew, A. J. Thorvaldsen, L. Thoegersen,
       O. Vahtras, M. A. Watson, D. J. D. Wilson, M. Ziolkowski
       and H. Agren,
       "The Dalton quantum chemistry program system",
       WIREs Comput. Mol. Sci. 2014, 4:269–284 (doi: 10.1002/wcms.1172)
     
    and
     
       Dalton, a molecular electronic structure program,
       Release Dalton2018.1 (2019), see http://daltonprogram.org
   ----------------------------------------------------------------------------

    Authors in alphabetical order (major contribution(s) in parenthesis):

  Kestutis Aidas,           Vilnius University,           Lithuania   (QM/MM)
  Celestino Angeli,         University of Ferrara,        Italy       (NEVPT2)
  Keld L. Bak,              UNI-C,                        Denmark     (AOSOPPA, non-adiabatic coupling, magnetic properties)
  Vebjoern Bakken,          University of Oslo,           Norway      (DALTON; geometry optimizer, symmetry detection)
  Radovan Bast,             UiT The Arctic U. of Norway,  Norway      (DALTON installation and execution frameworks)
  Pablo Baudin,             University of Valencia,       Spain       (Cholesky excitation energies)
  Linus Boman,              NTNU,                         Norway      (Cholesky decomposition and subsystems)
  Ove Christiansen,         Aarhus University,            Denmark     (CC module)
  Renzo Cimiraglia,         University of Ferrara,        Italy       (NEVPT2)
  Sonia Coriani,            Technical Univ. of Denmark,   Denmark     (CC module, MCD in RESPONS)
  Janusz Cukras,            University of Trieste,        Italy       (MChD in RESPONS)
  Paal Dahle,               University of Oslo,           Norway      (Parallelization)
  Erik K. Dalskov,          UNI-C,                        Denmark     (SOPPA)
  Thomas Enevoldsen,        Univ. of Southern Denmark,    Denmark     (SOPPA)
  Janus J. Eriksen,         Aarhus University,            Denmark     (Polarizable embedding model, TDA)
  Rasmus Faber,             University of Copenhagen,     Denmark     (Vib.avg. NMR with SOPPA, parallel AO-SOPPA)
  Tobias Fahleson,          KTH Stockholm,                Sweden      (Damped cubic response)
  Berta Fernandez,          U. of Santiago de Compostela, Spain       (doublet spin, ESR in RESPONS)
  Lara Ferrighi,            Aarhus University,            Denmark     (PCM Cubic response)
  Heike Fliegl,             University of Oslo,           Norway      (CCSD(R12))
  Luca Frediani,            UiT The Arctic U. of Norway,  Norway      (PCM)
  Bin Gao,                  UiT The Arctic U. of Norway,  Norway      (Gen1Int library)
  Christof Haettig,         Ruhr-University Bochum,       Germany     (CC module)
  Kasper Hald,              Aarhus University,            Denmark     (CC module)
  Asger Halkier,            Aarhus University,            Denmark     (CC module)
  Frederik Beyer Hansen,    University of Copenhagen,     Denmark     (Parallel AO-SOPPA)
  Erik D. Hedegaard,        Univ. of Southern Denmark,    Denmark     (Polarizable embedding model, QM/MM)
  Hanne Heiberg,            University of Oslo,           Norway      (geometry analysis, selected one-electron integrals)
  Trygve Helgaker,          University of Oslo,           Norway      (DALTON; ABACUS, ERI, DFT modules, London, and much more)
  Alf Christian Hennum,     University of Oslo,           Norway      (Parity violation)
  Hinne Hettema,            University of Auckland,       New Zealand (quadratic response in RESPONS; SIRIUS supersymmetry)
  Eirik Hjertenaes,         NTNU,                         Norway      (Cholesky decomposition)
  Pi A. B. Haase,           University of Copenhagen,     Denmark     (Triplet AO-SOPPA)
  Maria Francesca Iozzi,    University of Oslo,           Norway      (RPA)
  Christoph Jacob           TU Braunschweig               Germany     (Frozen density embedding model)
  Brano Jansik              Technical Univ. of Ostrava    Czech Rep.  (DFT cubic response)
  Hans Joergen Aa. Jensen,  Univ. of Southern Denmark,    Denmark     (DALTON; SIRIUS, RESPONS, ABACUS modules, London, and much more)
  Dan Jonsson,              UiT The Arctic U. of Norway,  Norway      (cubic response in RESPONS module)
  Poul Joergensen,          Aarhus University,            Denmark     (RESPONS, ABACUS, and CC modules)
  Maciej Kaminski,          University of Warsaw,         Poland      (CPPh in RESPONS)
  Joanna Kauczor,           Linkoeping University,        Sweden      (Complex polarization propagator (CPP) module)
  Sheela Kirpekar,          Univ. of Southern Denmark,    Denmark     (Mass-velocity & Darwin integrals)
  Wim Klopper,              KIT Karlsruhe,                Germany     (R12 code in CC, SIRIUS, and ABACUS modules)
  Stefan Knecht,            ETH Zurich,                   Switzerland (Parallel CI and MCSCF)
  Rika Kobayashi,           Australian National Univ.,    Australia   (DIIS in CC, London in MCSCF)
  Henrik Koch,              NTNU,                         Norway      (CC module, Cholesky decomposition)
  Jacob Kongsted,           Univ. of Southern Denmark,    Denmark     (Polarizable embedding model, QM/MM)
  Andrea Ligabue,           University of Modena,         Italy       (CTOCD, AOSOPPA)
  Nanna H. List             Univ. of Southern Denmark,    Denmark     (Polarizable embedding model)
  Ola B. Lutnaes,           University of Oslo,           Norway      (DFT Hessian)
  Juan I. Melo,             University of Buenos Aires,   Argentina   (LRESC, Relativistic Effects on NMR Shieldings)
  Kurt V. Mikkelsen,        University of Copenhagen,     Denmark     (MC-SCRF and QM/MM)
  Rolf H. Myhre,            NTNU,                         Norway      (Subsystems and CC3)
  Christian Neiss,          Univ. Erlangen-Nuernberg,     Germany     (CCSD(R12))
  Christian B. Nielsen,     University of Copenhagen,     Denmark     (QM/MM)
  Patrick Norman,           KTH Stockholm,                Sweden      (Cubic response and complex frequency response in RESPONS)
  Jeppe Olsen,              Aarhus University,            Denmark     (SIRIUS CI/density modules)
  Jogvan Magnus H. Olsen,   Univ. of Southern Denmark,    Denmark     (Polarizable embedding model, QM/MM)
  Anders Osted,             Copenhagen University,        Denmark     (QM/MM)
  Martin J. Packer,         University of Sheffield,      UK          (SOPPA)
  Filip Pawlowski,          Kazimierz Wielki University,  Poland      (CC3)
  Morten N. Pedersen,       Univ. of Southern Denmark,    Denmark     (Polarizable embedding model)
  Thomas B. Pedersen,       University of Oslo,           Norway      (Cholesky decomposition)
  Patricio F. Provasi,      University of Northeastern,   Argentina   (Analysis of coupling constants in localized orbitals)
  Zilvinas Rinkevicius,     KTH Stockholm,                Sweden      (open-shell DFT, ESR)
  Elias Rudberg,            KTH Stockholm,                Sweden      (DFT grid and basis info)
  Torgeir A. Ruden,         University of Oslo,           Norway      (Numerical derivatives in ABACUS)
  Kenneth Ruud,             UiT The Arctic U. of Norway,  Norway      (DALTON; ABACUS magnetic properties and much more)
  Pawel Salek,              KTH Stockholm,                Sweden      (DALTON; DFT code)
  Claire C. M. Samson       University of Karlsruhe       Germany     (Boys localization, r12 integrals in ERI)
  Alfredo Sanchez de Meras, University of Valencia,       Spain       (CC module, Cholesky decomposition)
  Trond Saue,               Paul Sabatier University,     France      (direct Fock matrix construction)
  Stephan P. A. Sauer,      University of Copenhagen,     Denmark     (SOPPA(CCSD), SOPPA prop., AOSOPPA, vibrational g-factors)
  Andre S. P. Gomes,        CNRS/Universite de Lille,     France      (Frozen density embedding model)
  Bernd Schimmelpfennig,    Forschungszentrum Karlsruhe,  Germany     (AMFI module)
  Kristian Sneskov,         Aarhus University,            Denmark     (Polarizable embedding model, QM/MM)
  Arnfinn H. Steindal,      UiT The Arctic U. of Norway,  Norway      (parallel QM/MM, Polarizable embedding model)
  Casper Steinmann,         Univ. of Southern Denmark,    Denmark     (QFIT, Polarizable embedding model)
  K. O. Sylvester-Hvid,     University of Copenhagen,     Denmark     (MC-SCRF)
  Peter R. Taylor,          VLSCI/Univ. of Melbourne,     Australia   (Symmetry handling ABACUS, integral transformation)
  Andrew M. Teale,          University of Nottingham,     England     (DFT-AC, DFT-D)
  David P. Tew,             University of Bristol,        England     (CCSD(R12))
  Olav Vahtras,             KTH Stockholm,                Sweden      (triplet response, spin-orbit, ESR, TDDFT, open-shell DFT)
  Lucas Visscher,           Vrije Universiteit Amsterdam, Netherlands (Frozen density embedding model)
  David J. Wilson,          La Trobe University,          Australia   (DFT Hessian and DFT magnetizabilities)
  Hans Agren,               KTH Stockholm,                Sweden      (SIRIUS module, RESPONS, MC-SCRF solvation model)
 --------------------------------------------------------------------------------

     Date and time (Linux)  : Sun Dec 15 03:41:22 2019
     Host name              : Lab2-333-NPs                            

 * Work memory size             :  1024000000 =  7.629 gigabytes.

 * Directories for basis set searches:
   1) /home/lab333/dalton/build_2018_atlas
   2) /home/lab333/dalton/build_2018_atlas/basis


Compilation information
-----------------------

 Who compiled             | lab333
 Host                     | Lab2-333-NPs
 System                   | Linux-4.4.0-43-Microsoft
 CMake generator          | Unix Makefiles
 Processor                | x86_64
 64-bit integers          | OFF
 MPI                      | OFF
 Fortran compiler         | /usr/bin/gfortran
 Fortran compiler version | GNU Fortran (Ubuntu 7.3.0-27ubuntu1~18.04) 7.3.0
 C compiler               | /usr/bin/gcc
 C compiler version       | gcc (Ubuntu 7.3.0-27ubuntu1~18.04) 7.3.0
 C++ compiler             | /usr/bin/g++
 C++ compiler version     | g++ (Ubuntu 7.3.0-27ubuntu1~18.04) 7.3.0
 BLAS                     | /usr/lib/x86_64-linux-gnu/libf77blas.so;/usr/lib/x
                          | 86_64-linux-gnu/libcblas.so;/usr/lib/x86_64-linux-
                          | gnu/libatlas.so
 LAPACK                   | /usr/lib/x86_64-linux-gnu/libatlas.so;/usr/lib/x86
                          | _64-linux-gnu/atlas/liblapack.so
 Static linking           | OFF
 Last Git revision        | da625bf48c74028e805616daee31bc5d76b3a20d
 Git branch               | (HEAD detached at Dalton2018.1)
 Configuration time       | 2019-01-18 10:20:51.437510


   Content of the .dal input file
 ----------------------------------

**DALTON INPUT
.RUN RESPONSE
.DIRECT
**WAVE FUNCTIONS
.HF
.MP2
.MCSCF
*CONFIGURATION INPUT
.SPIN MULTIPLICITY
1
.SYMMETRY
1
.INACTIVE ORBITALS
15 10 2 0
.CAS SPACE
1 1 2 3
.ELECTRONS
10
*ORBITAL INPUT
.MOSTART
.HUCKEL
*OPTIMIZATION
.DETERMINANTS
.STATE
1
*CI VECTOR
.PLUS COMBINATIONS
**RESPONSE
*CUBIC
.DIPLEN
.BFREQ
1
0.0584
.CFREQ
1
-0.0584
.DFREQ
1
0.0584
**END OF DALTON INPUT


   Content of the .mol file
 ----------------------------

BASIS
aug-cc-pCVDZ
 nitrobenzene
 Generated by the Dalton Input File Plugin for Avogadro
Atomtypes=4 Angstrom Generators=2 X Y
Charge=6.0 Atoms=4
C        0.0000000000            0.0000000000           -0.0265759623
C       -1.2190534920            0.0000000000           -0.6979856948
C       -1.2105095870            0.0000000000           -2.0897394457
C        0.0000000000            0.0000000000           -2.7841484631
Charge=7.0 Atoms=1
N        0.0000000000            0.0000000000            1.4549291696
Charge=8.0 Atoms=1
O       0.6388530273649866            0.0            2.4998749353277994
Charge=1.0 Atoms=3
H       -2.1410602955            0.0000000000           -0.1327964319
H       -2.1492827751            0.0000000000           -2.6311811056
H        0.0000000000            0.0000000000           -3.8683953478


       *******************************************************************
       *********** Output from DALTON general input processing ***********
       *******************************************************************

 --------------------------------------------------------------------------------
   Overall default print level:    0
   Print level for DALTON.STAT:    1

    AO-direct calculation (in sections where implemented)
    HERMIT 1- and 2-electron integral sections will be executed
    "Old" integral transformation used (limited to max 255 basis functions)
    Wave function sections will be executed (SIRIUS module)
    Dynamic molecular response properties section will be executed (RESPONSE module)
 --------------------------------------------------------------------------------


   ****************************************************************************
   *************** Output of molecule and basis set information ***************
   ****************************************************************************


    The two title cards from your ".mol" input:
    ------------------------------------------------------------------------
 1:  nitrobenzene                                                           
 2:  Generated by the Dalton Input File Plugin for Avogadro                 
    ------------------------------------------------------------------------

  Coordinates are entered in Angstrom and converted to atomic units.
          - Conversion factor : 1 bohr = 0.52917721 A

  Atomic type no.    1
  --------------------
  Nuclear charge:   6.00000
  Number of symmetry independent centers:    4
  Number of basis sets to read;    2
  Basis set file used for this atomic type with Z =   6 :
     "/home/lab333/dalton/build_2018_atlas/basis/aug-cc-pCVDZ"

  Atomic type no.    2
  --------------------
  Nuclear charge:   7.00000
  Number of symmetry independent centers:    1
  Number of basis sets to read;    2
  Basis set file used for this atomic type with Z =   7 :
     "/home/lab333/dalton/build_2018_atlas/basis/aug-cc-pCVDZ"

  Atomic type no.    3
  --------------------
  Nuclear charge:   8.00000
  Number of symmetry independent centers:    1
  Number of basis sets to read;    2
  Basis set file used for this atomic type with Z =   8 :
     "/home/lab333/dalton/build_2018_atlas/basis/aug-cc-pCVDZ"

  Atomic type no.    4
  --------------------
  Nuclear charge:   1.00000
  Number of symmetry independent centers:    3
  Number of basis sets to read;    2
  Basis set file used for this atomic type with Z =   1 :
     "/home/lab333/dalton/build_2018_atlas/basis/aug-cc-pCVDZ"


                         SYMGRP: Point group information
                         -------------------------------

@    Point group: C2v

@  * The irrep name for each symmetry:    1: A1     2: B1     3: B2     4: A2 

   * The point group was generated by:

      Reflection in the yz-plane
      Reflection in the xz-plane

   * Group multiplication table

        |  E   C2z  Oxz  Oyz
   -----+--------------------
     E  |  E   C2z  Oxz  Oyz
    C2z | C2z   E   Oyz  Oxz
    Oxz | Oxz  Oyz   E   C2z
    Oyz | Oyz  Oxz  C2z   E 

   * Character table

        |  E   C2z  Oxz  Oyz
   -----+--------------------
    A1  |   1    1    1    1
    B1  |   1   -1    1   -1
    B2  |   1   -1   -1    1
    A2  |   1    1   -1   -1

   * Direct product table

        | A1   B1   B2   A2 
   -----+--------------------
    A1  | A1   B1   B2   A2 
    B1  | B1   A1   A2   B2 
    B2  | B2   A2   A1   B1 
    A2  | A2   B2   B1   A1 


                                 Isotopic Masses
                                 ---------------

                           C          12.000000
                           C   _1     12.000000
                           C   _2     12.000000
                           C   _1     12.000000
                           C   _2     12.000000
                           C          12.000000
                           N          14.003074
                           O   _1     15.994915
                           O   _2     15.994915
                           H   _1      1.007825
                           H   _2      1.007825
                           H   _1      1.007825
                           H   _2      1.007825
                           H           1.007825

                       Total mass:   123.032029 amu
                       Natural abundance:  92.716 %

 Center-of-mass coordinates (a.u.):    0.000000    0.000000   -0.149909


  Atoms and basis sets
  --------------------

  Number of atom types :    4
  Total number of atoms:   14

  Basis set used is "aug-cc-pCVDZ" from the basis set library.

  label    atoms   charge   prim   cont     basis
  ----------------------------------------------------------------------
  C           6    6.0000    39    27      [11s6p2d|5s4p2d]                                   
  N           1    7.0000    39    27      [11s6p2d|5s4p2d]                                   
  O           2    8.0000    39    27      [11s6p2d|5s4p2d]                                   
  H           5    1.0000    11     9      [5s2p|3s2p]                                        
  ----------------------------------------------------------------------
  total:     14   64.0000   406   288
  ----------------------------------------------------------------------
  Spherical harmonic basis used.

  Threshold for neglecting AO integrals:  1.00D-12


  Symmetry Coordinates
  --------------------

  Number of coordinates in each symmetry:    14   14    9    5


   Interatomic separations (in Angstrom):
   --------------------------------------

            C           C   _1      C   _2      C   _1      C   _2      C     
            ------      ------      ------      ------      ------      ------
 C     :    0.000000
 C   _1:    1.391719    0.000000
 C   _2:    1.391719    2.438107    0.000000
 C   _1:    2.392065    1.391780    2.799956    0.000000
 C   _2:    2.392065    2.799956    1.391780    2.421019    0.000000
 C     :    2.757573    2.416230    2.416230    1.395542    1.395542    0.000000
 N     :    1.481505    2.474093    2.474093    3.745665    3.745665    4.239078
 O   _1:    2.605971    3.698395    3.250068    4.948202    4.625079    5.322503
 O   _2:    2.605971    3.250068    3.698395    4.625079    4.948202    5.322503
 H   _1:    2.143694    1.081451    3.407316    2.166922    3.881063    3.407904
 H   _2:    2.143694    3.407316    1.081451    3.881063    2.166922    3.407904
 H   _1:    3.376890    2.145360    3.883675    1.083722    3.403140    2.154719
 H   _2:    3.376890    3.883675    2.145360    3.403140    1.083722    2.154719
 H     :    3.841819    3.396703    3.396703    2.151500    2.151500    1.084247

            N           O   _1      O   _2      H   _1      H   _2      H   _1
            ------      ------      ------      ------      ------      ------
 N     :    0.000000
 O   _1:    1.224763    0.000000
 O   _2:    1.224763    1.277706    0.000000
 H   _1:    2.665523    3.828691    3.031103    0.000000
 H   _2:    2.665523    3.031103    3.828691    4.282121    0.000000
 H   _1:    4.616894    5.839644    5.348751    2.498398    4.964773    0.000000
 H   _2:    4.616894    5.348751    5.839644    4.964773    2.498398    4.298566
 H     :    5.323325    6.400234    6.400234    4.305675    4.305675    2.479943

            H   _2      H     
            ------      ------
 H   _2:    0.000000
 H     :    2.479943    0.000000


  Max    interatomic separation is    6.4002 Angstrom (   12.0947 Bohr)
  between atoms   14 and    8, "H     " and "O   _1".

  Min HX interatomic separation is    1.0815 Angstrom (    2.0436 Bohr)

  Min YX interatomic separation is    1.2248 Angstrom (    2.3145 Bohr)


  Bond distances (Angstrom):
  --------------------------

                  atom 1     atom 2       distance
                  ------     ------       --------
  bond distance:  C   _1     C            1.391719
  bond distance:  C   _2     C            1.391719
  bond distance:  C   _1     C   _1       1.391780
  bond distance:  C   _2     C   _2       1.391780
  bond distance:  C          C   _1       1.395542
  bond distance:  C          C   _2       1.395542
  bond distance:  N          C            1.481505
  bond distance:  O   _1     N            1.224763
  bond distance:  O   _2     N            1.224763
  bond distance:  O   _2     O   _1       1.277706
  bond distance:  H   _1     C   _1       1.081451
  bond distance:  H   _2     C   _2       1.081451
  bond distance:  H   _1     C   _1       1.083722
  bond distance:  H   _2     C   _2       1.083722
  bond distance:  H          C            1.084247


  Bond angles (degrees):
  ----------------------

                  atom 1     atom 2     atom 3         angle
                  ------     ------     ------         -----
  bond angle:     C   _1     C          C   _2       122.311
  bond angle:     C   _1     C          N            118.844
  bond angle:     C   _2     C          N            118.844
  bond angle:     C          C   _1     C   _1       118.493
  bond angle:     C          C   _1     H   _1       119.647
  bond angle:     C   _1     C   _1     H   _1       121.860
  bond angle:     C          C   _2     C   _2       118.493
  bond angle:     C          C   _2     H   _2       119.647
  bond angle:     C   _2     C   _2     H   _2       121.860
  bond angle:     C   _1     C   _1     C            120.192
  bond angle:     C   _1     C   _1     H   _1       119.623
  bond angle:     C          C   _1     H   _1       120.185
  bond angle:     C   _2     C   _2     C            120.192
  bond angle:     C   _2     C   _2     H   _2       119.623
  bond angle:     C          C   _2     H   _2       120.185
  bond angle:     C   _1     C          C   _2       120.319
  bond angle:     C   _1     C          H            119.841
  bond angle:     C   _2     C          H            119.841
  bond angle:     C          N          O   _1       148.559
  bond angle:     C          N          O   _2       148.559
  bond angle:     O   _1     N          O   _2        62.881
  bond angle:     N          O   _1     O   _2        58.559
  bond angle:     N          O   _2     O   _1        58.559




 Principal moments of inertia (u*A**2) and principal axes
 --------------------------------------------------------

   IA     102.441455          0.000000    0.000000    1.000000
   IB     467.382815          1.000000    0.000000    0.000000
   IC     569.824271          0.000000    1.000000    0.000000


 Rotational constants
 --------------------

@    The molecule is planar.

               A                   B                   C

           4933.3447           1081.2957            886.9033 MHz
            0.164559            0.036068            0.029584 cm-1


@  Nuclear repulsion energy :  413.429257419000 Hartree


  Symmetry Orbitals
  -----------------

  Number of orbitals in each symmetry:         115   91   48   34


  Symmetry  A1 ( 1)

    1     C        1s         1
    2     C        1s         2
    3     C        1s         3
    4     C        1s         4
    5     C        1s         5
    6     C        2pz        8
    7     C        2pz       11
    8     C        2pz       14
    9     C        2pz       17
   10     C        3d0       20
   11     C        3d2+      22
   12     C        3d0       25
   13     C        3d2+      27
   14     C        1s        28 +   29
   15     C        1s        30 +   31
   16     C        1s        32 +   33
   17     C        1s        34 +   35
   18     C        1s        36 +   37
   19     C        2px       38 -   39
   20     C        2pz       42 +   43
   21     C        2px       44 -   45
   22     C        2pz       48 +   49
   23     C        2px       50 -   51
   24     C        2pz       54 +   55
   25     C        2px       56 -   57
   26     C        2pz       60 +   61
   27     C        3d0       66 +   67
   28     C        3d1+      68 -   69
   29     C        3d2+      70 +   71
   30     C        3d0       76 +   77
   31     C        3d1+      78 -   79
   32     C        3d2+      80 +   81
   33     C        1s        82 +   83
   34     C        1s        84 +   85
   35     C        1s        86 +   87
   36     C        1s        88 +   89
   37     C        1s        90 +   91
   38     C        2px       92 -   93
   39     C        2pz       96 +   97
   40     C        2px       98 -   99
   41     C        2pz      102 +  103
   42     C        2px      104 -  105
   43     C        2pz      108 +  109
   44     C        2px      110 -  111
   45     C        2pz      114 +  115
   46     C        3d0      120 +  121
   47     C        3d1+     122 -  123
   48     C        3d2+     124 +  125
   49     C        3d0      130 +  131
   50     C        3d1+     132 -  133
   51     C        3d2+     134 +  135
   52     C        1s       136
   53     C        1s       137
   54     C        1s       138
   55     C        1s       139
   56     C        1s       140
   57     C        2pz      143
   58     C        2pz      146
   59     C        2pz      149
   60     C        2pz      152
   61     C        3d0      155
   62     C        3d2+     157
   63     C        3d0      160
   64     C        3d2+     162
   65     N        1s       163
   66     N        1s       164
   67     N        1s       165
   68     N        1s       166
   69     N        1s       167
   70     N        2pz      170
   71     N        2pz      173
   72     N        2pz      176
   73     N        2pz      179
   74     N        3d0      182
   75     N        3d2+     184
   76     N        3d0      187
   77     N        3d2+     189
   78     O        1s       190 +  191
   79     O        1s       192 +  193
   80     O        1s       194 +  195
   81     O        1s       196 +  197
   82     O        1s       198 +  199
   83     O        2px      200 -  201
   84     O        2pz      204 +  205
   85     O        2px      206 -  207
   86     O        2pz      210 +  211
   87     O        2px      212 -  213
   88     O        2pz      216 +  217
   89     O        2px      218 -  219
   90     O        2pz      222 +  223
   91     O        3d0      228 +  229
   92     O        3d1+     230 -  231
   93     O        3d2+     232 +  233
   94     O        3d0      238 +  239
   95     O        3d1+     240 -  241
   96     O        3d2+     242 +  243
   97     H        1s       244 +  245
   98     H        1s       246 +  247
   99     H        1s       248 +  249
  100     H        2px      250 -  251
  101     H        2pz      254 +  255
  102     H        2px      256 -  257
  103     H        2pz      260 +  261
  104     H        1s       262 +  263
  105     H        1s       264 +  265
  106     H        1s       266 +  267
  107     H        2px      268 -  269
  108     H        2pz      272 +  273
  109     H        2px      274 -  275
  110     H        2pz      278 +  279
  111     H        1s       280
  112     H        1s       281
  113     H        1s       282
  114     H        2pz      285
  115     H        2pz      288


  Symmetry  B1 ( 2)

  116     C        2px        6
  117     C        2px        9
  118     C        2px       12
  119     C        2px       15
  120     C        3d1+      21
  121     C        3d1+      26
  122     C        1s        28 -   29
  123     C        1s        30 -   31
  124     C        1s        32 -   33
  125     C        1s        34 -   35
  126     C        1s        36 -   37
  127     C        2px       38 +   39
  128     C        2pz       42 -   43
  129     C        2px       44 +   45
  130     C        2pz       48 -   49
  131     C        2px       50 +   51
  132     C        2pz       54 -   55
  133     C        2px       56 +   57
  134     C        2pz       60 -   61
  135     C        3d0       66 -   67
  136     C        3d1+      68 +   69
  137     C        3d2+      70 -   71
  138     C        3d0       76 -   77
  139     C        3d1+      78 +   79
  140     C        3d2+      80 -   81
  141     C        1s        82 -   83
  142     C        1s        84 -   85
  143     C        1s        86 -   87
  144     C        1s        88 -   89
  145     C        1s        90 -   91
  146     C        2px       92 +   93
  147     C        2pz       96 -   97
  148     C        2px       98 +   99
  149     C        2pz      102 -  103
  150     C        2px      104 +  105
  151     C        2pz      108 -  109
  152     C        2px      110 +  111
  153     C        2pz      114 -  115
  154     C        3d0      120 -  121
  155     C        3d1+     122 +  123
  156     C        3d2+     124 -  125
  157     C        3d0      130 -  131
  158     C        3d1+     132 +  133
  159     C        3d2+     134 -  135
  160     C        2px      141
  161     C        2px      144
  162     C        2px      147
  163     C        2px      150
  164     C        3d1+     156
  165     C        3d1+     161
  166     N        2px      168
  167     N        2px      171
  168     N        2px      174
  169     N        2px      177
  170     N        3d1+     183
  171     N        3d1+     188
  172     O        1s       190 -  191
  173     O        1s       192 -  193
  174     O        1s       194 -  195
  175     O        1s       196 -  197
  176     O        1s       198 -  199
  177     O        2px      200 +  201
  178     O        2pz      204 -  205
  179     O        2px      206 +  207
  180     O        2pz      210 -  211
  181     O        2px      212 +  213
  182     O        2pz      216 -  217
  183     O        2px      218 +  219
  184     O        2pz      222 -  223
  185     O        3d0      228 -  229
  186     O        3d1+     230 +  231
  187     O        3d2+     232 -  233
  188     O        3d0      238 -  239
  189     O        3d1+     240 +  241
  190     O        3d2+     242 -  243
  191     H        1s       244 -  245
  192     H        1s       246 -  247
  193     H        1s       248 -  249
  194     H        2px      250 +  251
  195     H        2pz      254 -  255
  196     H        2px      256 +  257
  197     H        2pz      260 -  261
  198     H        1s       262 -  263
  199     H        1s       264 -  265
  200     H        1s       266 -  267
  201     H        2px      268 +  269
  202     H        2pz      272 -  273
  203     H        2px      274 +  275
  204     H        2pz      278 -  279
  205     H        2px      283
  206     H        2px      286


  Symmetry  B2 ( 3)

  207     C        2py        7
  208     C        2py       10
  209     C        2py       13
  210     C        2py       16
  211     C        3d1-      19
  212     C        3d1-      24
  213     C        2py       40 +   41
  214     C        2py       46 +   47
  215     C        2py       52 +   53
  216     C        2py       58 +   59
  217     C        3d2-      62 -   63
  218     C        3d1-      64 +   65
  219     C        3d2-      72 -   73
  220     C        3d1-      74 +   75
  221     C        2py       94 +   95
  222     C        2py      100 +  101
  223     C        2py      106 +  107
  224     C        2py      112 +  113
  225     C        3d2-     116 -  117
  226     C        3d1-     118 +  119
  227     C        3d2-     126 -  127
  228     C        3d1-     128 +  129
  229     C        2py      142
  230     C        2py      145
  231     C        2py      148
  232     C        2py      151
  233     C        3d1-     154
  234     C        3d1-     159
  235     N        2py      169
  236     N        2py      172
  237     N        2py      175
  238     N        2py      178
  239     N        3d1-     181
  240     N        3d1-     186
  241     O        2py      202 +  203
  242     O        2py      208 +  209
  243     O        2py      214 +  215
  244     O        2py      220 +  221
  245     O        3d2-     224 -  225
  246     O        3d1-     226 +  227
  247     O        3d2-     234 -  235
  248     O        3d1-     236 +  237
  249     H        2py      252 +  253
  250     H        2py      258 +  259
  251     H        2py      270 +  271
  252     H        2py      276 +  277
  253     H        2py      284
  254     H        2py      287


  Symmetry  A2 ( 4)

  255     C        3d2-      18
  256     C        3d2-      23
  257     C        2py       40 -   41
  258     C        2py       46 -   47
  259     C        2py       52 -   53
  260     C        2py       58 -   59
  261     C        3d2-      62 +   63
  262     C        3d1-      64 -   65
  263     C        3d2-      72 +   73
  264     C        3d1-      74 -   75
  265     C        2py       94 -   95
  266     C        2py      100 -  101
  267     C        2py      106 -  107
  268     C        2py      112 -  113
  269     C        3d2-     116 +  117
  270     C        3d1-     118 -  119
  271     C        3d2-     126 +  127
  272     C        3d1-     128 -  129
  273     C        3d2-     153
  274     C        3d2-     158
  275     N        3d2-     180
  276     N        3d2-     185
  277     O        2py      202 -  203
  278     O        2py      208 -  209
  279     O        2py      214 -  215
  280     O        2py      220 -  221
  281     O        3d2-     224 +  225
  282     O        3d1-     226 -  227
  283     O        3d2-     234 +  235
  284     O        3d1-     236 -  237
  285     H        2py      252 -  253
  286     H        2py      258 -  259
  287     H        2py      270 -  271
  288     H        2py      276 -  277

  Symmetries of electric field:  B1 (2)  B2 (3)  A1 (1)

  Symmetries of magnetic field:  B2 (3)  B1 (2)  A2 (4)


                     .---------------------------------------.
                     | Starting in Integral Section (HERMIT) |
                     `---------------------------------------'



 ***************************************************************************************
 ****************** Output from **INTEGRALS input processing (HERMIT) ******************
 ***************************************************************************************


 - Using defaults, no **INTEGRALS input found

 Default print level:        1

 Calculation of one-electron Hamiltonian integrals.

 Center of mass  (bohr):      0.000000000000      0.000000000000     -0.149908708838
 Operator center (bohr):      0.000000000000      0.000000000000      0.000000000000
 Gauge origin    (bohr):      0.000000000000      0.000000000000      0.000000000000
 Dipole origin   (bohr):      0.000000000000      0.000000000000      0.000000000000


     ************************************************************************
     ************************** Output from HERINT **************************
     ************************************************************************



                      Nuclear contribution to dipole moments
                      --------------------------------------

                 au               Debye          C m (/(10**-30)

      z    -18.01078224       -45.77883925      -152.70177094


  Time used in GABGEN     is       0.12 seconds
  Total CPU  time used in HERMIT:   0.44 seconds
  Total wall time used in HERMIT:   0.45 seconds


                        .----------------------------------.
                        | End of Integral Section (HERMIT) |
                        `----------------------------------'



                   .--------------------------------------------.
                   | Starting in Wave Function Section (SIRIUS) |
                   `--------------------------------------------'


 *** Output from Huckel module :

     Using EWMO model:          F
     Using EHT  model:          T
     Number of Huckel orbitals each symmetry:   24   17    6    3

 Huckel EHT eigenvalues for symmetry :  1
          -20.715893     -15.706179     -11.414848     -11.394410     -11.376679
          -11.362578      -1.902326      -1.576552      -1.261696      -0.997799
           -0.830393      -0.730092      -0.645173      -0.622152      -0.537657
           -0.437773      -0.309661      -0.237806      -0.220244      -0.213434
           -0.205741      -0.178523      -0.166788      -0.160395

 Huckel EHT eigenvalues for symmetry :  2
          -20.697339     -11.396451     -11.377841      -1.247477      -1.166299
           -0.882491      -0.603421      -0.534079      -0.485745      -0.417210
           -0.398006      -0.327862      -0.213833      -0.202813      -0.176267
           -0.165467      -0.163306

 Huckel EHT eigenvalues for symmetry :  3
           -0.829831      -0.695214      -0.483293      -0.390625      -0.281550
           -0.236521

 Huckel EHT eigenvalues for symmetry :  4
           -0.515974      -0.460537      -0.288954

 **********************************************************************
 *SIRIUS* a direct, restricted step, second order MCSCF program       *
 **********************************************************************

 
     Date and time (Linux)  : Sun Dec 15 03:41:22 2019
     Host name              : Lab2-333-NPs                            

 Title lines from ".mol" input file:
      nitrobenzene                                                           
      Generated by the Dalton Input File Plugin for Avogadro                 

 Print level on unit LUPRI =   2 is   0
 Print level on unit LUW4  =   2 is   5

@    MC-SCF optimization.

@    Multi-configurational response calculation.
@              Type: complete active space calculation (CAS).

@    This is a combination run starting with
@              a restricted, closed shell Hartree-Fock calculation
@              an MP2 calculation

 Fock matrices are calculated directly without use of integrals on disk.

 Initial molecular orbitals are obtained according to
 ".MOSTART EHT   " input option

     Wave function specification
     ============================
@    Wave function type        --- MC-SCF ---
@    Number of closed shell electrons          54
@    Number of electrons in active shells      10
@    Total charge of the molecule               0

@    Spin multiplicity and 2 M_S                1         0
@    Total number of symmetries                 4 (point group: C2v)
@    Reference state symmetry                   1 (irrep name : A1 )

     Orbital specifications
     ======================
@    Abelian symmetry species          All |    1    2    3    4
@                                          |  A1   B1   B2   A2 
                                       --- |  ---  ---  ---  ---
@    Inactive orbitals                  27 |   15   10    2    0
@    Active orbitals                     7 |    1    1    2    3
@    Secondary orbitals                254 |   99   80   44   31
@    Total number of orbitals          288 |  115   91   48   34
@    Number of basis functions         288 |  115   91   48   34

      ** Automatic occupation of RHF orbitals **

      -- Initial occupation of symmetries is determined from extended Huckel guess.           
      -- Initial occupation of symmetries is :
@    Occupied SCF orbitals              32 |   16   11    3    2

     Optimization information
     ========================
@    Number of determinants                 115
@    Number of orbital rotations           2762
     ------------------------------------------
@    Total number of variables             2877

     Maximum number of macro iterations      25
     Maximum number of micro iterations     600
     Threshold for MCSCF gradient      1.00D-05
     Number of initial trial vectors          1
     Number of initial CI iterations          3
     Number of simultaneous trial vectors     1

@    This calculation converges to the lowest state for the specified symmetry and spin species.

     Maximum number of NEO/NR iterations  24

    INFORMATION: Switched to "new" integral transformation (from 1988 ;-) )
    because more than 255 basis functions.


 ***********************************************
 ***** DIIS acceleration of SCF iterations *****
 ***********************************************

 C1-DIIS algorithm; max error vectors =    8

 Automatic occupation of symmetries with  64 electrons.

 Iter     Total energy    Error norm  Delta(E)    SCF occupation
 -----------------------------------------------------------------------------
   1  Screening settings (-IFTHRS, JTDIIS, DIFDEN, times)   -8    1    T  2.80D+01  2.80D+01
@  1  -430.904231947       7.06D+00  -4.31D+02    16  11   3   2
      Virial theorem: -V/T =      1.986633
@    MULPOP   C       0.47; C   _1  0.29; C   _2  0.29; C   _1  0.26; C   _2  0.26; C       0.44; N       1.16; O   _1 -1.12; O   _2 -1.12; H   _1 -0.19; 
@             H   _2 -0.19; H   _1 -0.18; H   _2 -0.18; H      -0.18; 
   1  Level shift: doubly occupied orbital energies shifted by -2.00D-01
 -----------------------------------------------------------------------------
   2  Screening settings (-IFTHRS, JTDIIS, DIFDEN, times)   -8    2    T  2.81D+01  2.81D+01
@  2  -427.598012512       8.92D+00   3.31D+00    16  10   4   2
      Virial theorem: -V/T =      1.995630
@    MULPOP   C       0.48; C   _1 -0.54; C   _2 -0.54; C   _1 -0.16; C   _2 -0.16; C      -0.19; N      -0.06; O   _1  1.56; O   _2  1.56; H   _1 -0.40; 
@             H   _2 -0.40; H   _1 -0.39; H   _2 -0.39; H      -0.39; 
   2  Level shift: doubly occupied orbital energies shifted by -2.00D-01
 -----------------------------------------------------------------------------
   3  Screening settings (-IFTHRS, JTDIIS, DIFDEN, times)   -8    3    T  2.78D+01  2.79D+01
@  3  -432.630718239       3.53D+00  -5.03D+00    16  11   3   2
      Virial theorem: -V/T =      1.982228
@    MULPOP   C       1.88; C   _1  0.29; C   _2  0.29; C   _1  0.67; C   _2  0.67; C       0.78; N       0.31; O   _1 -1.22; O   _2 -1.22; H   _1 -0.52; 
@             H   _2 -0.52; H   _1 -0.47; H   _2 -0.47; H      -0.48; 
   3  Level shift: doubly occupied orbital energies shifted by -1.00D-01
 -----------------------------------------------------------------------------
   4  Screening settings (-IFTHRS, JTDIIS, DIFDEN, times)   -8    4    T  2.79D+01  2.79D+01
@  4  -433.293644622       1.40D+00  -6.63D-01    16  11   3   2
      Virial theorem: -V/T =      1.994806
@    MULPOP   C       1.53; C   _1  0.33; C   _2  0.33; C   _1  0.72; C   _2  0.72; C       0.48; N       0.78; O   _1 -1.24; O   _2 -1.24; H   _1 -0.53; 
@             H   _2 -0.53; H   _1 -0.46; H   _2 -0.46; H      -0.43; 
   4  Level shift: doubly occupied orbital energies shifted by -5.00D-02
 -----------------------------------------------------------------------------
   5  Screening settings (-IFTHRS, JTDIIS, DIFDEN, times)   -8    5    T  2.80D+01  2.80D+01
@  5  -433.436958334       3.90D-01  -1.43D-01    16  11   3   2
      Virial theorem: -V/T =      1.996609
@    MULPOP   C       1.69; C   _1  0.18; C   _2  0.18; C   _1  0.77; C   _2  0.77; C       0.39; N       0.50; O   _1 -1.01; O   _2 -1.01; H   _1 -0.60; 
@             H   _2 -0.60; H   _1 -0.43; H   _2 -0.43; H      -0.42; 
   5  Level shift: doubly occupied orbital energies shifted by -2.50D-02
 -----------------------------------------------------------------------------
   6  Screening settings (-IFTHRS, JTDIIS, DIFDEN, times)   -8    6    T  2.83D+01  2.83D+01
@  6  -433.463598683       2.36D-01  -2.66D-02    16  11   3   2
      Virial theorem: -V/T =      1.997045
@    MULPOP   C       1.95; C   _1  0.14; C   _2  0.14; C   _1  0.72; C   _2  0.72; C       0.31; N       0.47; O   _1 -0.89; O   _2 -0.89; H   _1 -0.74; 
@             H   _2 -0.74; H   _1 -0.39; H   _2 -0.39; H      -0.40; 
   6  Level shift: doubly occupied orbital energies shifted by -2.50D-02
 -----------------------------------------------------------------------------
   7  Screening settings (-IFTHRS, JTDIIS, DIFDEN, times)  -10    7    F  2.87D+01  2.87D+01
@  7  -433.469446783       2.13D-01  -5.85D-03    16  11   3   2
      Virial theorem: -V/T =      1.997535
@    MULPOP   C       2.12; C   _1  0.15; C   _2  0.15; C   _1  0.71; C   _2  0.71; C       0.31; N       0.39; O   _1 -0.81; O   _2 -0.81; H   _1 -0.87; 
@             H   _2 -0.87; H   _1 -0.38; H   _2 -0.38; H      -0.40; 
   7  Level shift: doubly occupied orbital energies shifted by -2.50D-02
 -----------------------------------------------------------------------------
   8  Screening settings (-IFTHRS, JTDIIS, DIFDEN, times)  -10    8    T  2.85D+01  2.85D+01
@  8  -433.473649856       1.32D-01  -4.20D-03    16  11   3   2
      Virial theorem: -V/T =      1.997398
@    MULPOP   C       2.18; C   _1  0.20; C   _2  0.20; C   _1  0.71; C   _2  0.71; C       0.33; N       0.35; O   _1 -0.78; O   _2 -0.78; H   _1 -0.97; 
@             H   _2 -0.97; H   _1 -0.38; H   _2 -0.38; H      -0.40; 
   8  Level shift: doubly occupied orbital energies shifted by -2.50D-02
 -----------------------------------------------------------------------------
   9  Screening settings (-IFTHRS, JTDIIS, DIFDEN, times)  -10    9    T  2.86D+01  2.86D+01
@  9  -433.476976323       5.09D-02  -3.33D-03    16  11   3   2
      Virial theorem: -V/T =      1.997402
@    MULPOP   C       2.20; C   _1  0.26; C   _2  0.26; C   _1  0.72; C   _2  0.72; C       0.36; N       0.33; O   _1 -0.76; O   _2 -0.76; H   _1 -1.10; 
@             H   _2 -1.10; H   _1 -0.37; H   _2 -0.37; H      -0.40; 
   9  Level shift: doubly occupied orbital energies shifted by -1.25D-02
 -----------------------------------------------------------------------------
  10  Screening settings (-IFTHRS, JTDIIS, DIFDEN, times)  -10   10    T  2.86D+01  2.86D+01
@ 10  -433.477902350       3.53D-02  -9.26D-04    16  11   3   2
      Virial theorem: -V/T =      1.997510
@    MULPOP   C       2.22; C   _1  0.31; C   _2  0.31; C   _1  0.73; C   _2  0.73; C       0.37; N       0.34; O   _1 -0.75; O   _2 -0.75; H   _1 -1.18; 
@             H   _2 -1.18; H   _1 -0.37; H   _2 -0.37; H      -0.40; 
  10  Level shift: doubly occupied orbital energies shifted by -1.25D-02
 -----------------------------------------------------------------------------
  11  Screening settings (-IFTHRS, JTDIIS, DIFDEN, times)  -10   11    T  2.85D+01  2.85D+01
@ 11  -433.478380743       1.83D-02  -4.78D-04    16  11   3   2
      Virial theorem: -V/T =      1.997531
@    MULPOP   C       2.24; C   _1  0.33; C   _2  0.33; C   _1  0.73; C   _2  0.73; C       0.37; N       0.35; O   _1 -0.75; O   _2 -0.75; H   _1 -1.23; 
@             H   _2 -1.23; H   _1 -0.37; H   _2 -0.37; H      -0.40; 
  11  Level shift: doubly occupied orbital energies shifted by -1.25D-02
 -----------------------------------------------------------------------------
  12  Screening settings (-IFTHRS, JTDIIS, DIFDEN, times)  -13   12    F  2.87D+01  2.87D+01
@ 12  -433.478688986       7.80D-03  -3.08D-04    16  11   3   2
      Virial theorem: -V/T =      1.997609
@    MULPOP   C       2.29; C   _1  0.36; C   _2  0.36; C   _1  0.73; C   _2  0.73; C       0.36; N       0.37; O   _1 -0.75; O   _2 -0.75; H   _1 -1.29; 
@             H   _2 -1.29; H   _1 -0.37; H   _2 -0.37; H      -0.40; 
 -----------------------------------------------------------------------------
  13  Screening settings (-IFTHRS, JTDIIS, DIFDEN, times)  -13   13    T  2.88D+01  2.88D+01
@ 13  -433.821695457       1.40D+00  -3.43D-01    16  10   4   2
      Virial theorem: -V/T =      1.998591
@    MULPOP   C       1.96; C   _1 -0.22; C   _2 -0.22; C   _1  0.66; C   _2  0.66; C       0.04; N      -0.22; O   _1 -0.31; O   _2 -0.31; H   _1 -0.41; 
@             H   _2 -0.41; H   _1 -0.41; H   _2 -0.41; H      -0.40; 
 -----------------------------------------------------------------------------
  14  Screening settings (-IFTHRS, JTDIIS, DIFDEN, times)   -9   14    F  2.85D+01  2.85D+01
@ 14  -433.821681962       1.40D+00   1.35D-05    16  10   4   2
      Virial theorem: -V/T =      1.998590
@    MULPOP   C       1.96; C   _1 -0.22; C   _2 -0.22; C   _1  0.66; C   _2  0.66; C       0.04; N      -0.22; O   _1 -0.31; O   _2 -0.31; H   _1 -0.41; 
@             H   _2 -0.41; H   _1 -0.41; H   _2 -0.41; H      -0.40; 
 -----------------------------------------------------------------------------
  15  Screening settings (-IFTHRS, JTDIIS, DIFDEN, times)   -9   15    T  2.76D+01  2.76D+01
@ 15  -433.821697317       1.40D+00  -1.54D-05    16  10   4   2
      Virial theorem: -V/T =      1.998589
@    MULPOP   C       1.96; C   _1 -0.22; C   _2 -0.22; C   _1  0.66; C   _2  0.66; C       0.04; N      -0.22; O   _1 -0.31; O   _2 -0.31; H   _1 -0.41; 
@             H   _2 -0.41; H   _1 -0.41; H   _2 -0.41; H      -0.40; 
 -----------------------------------------------------------------------------
  16  Screening settings (-IFTHRS, JTDIIS, DIFDEN, times)   -9   16    T  2.76D+01  2.76D+01
@ 16  -433.821699530       1.40D+00  -2.21D-06    16  10   4   2

Info: SCF gradient has been lower than now,
      therefore  4 old iterations are removed from DIIS.
      Virial theorem: -V/T =      1.998589
@    MULPOP   C       1.96; C   _1 -0.22; C   _2 -0.22; C   _1  0.66; C   _2  0.66; C       0.04; N      -0.22; O   _1 -0.31; O   _2 -0.31; H   _1 -0.41; 
@             H   _2 -0.41; H   _1 -0.41; H   _2 -0.41; H      -0.40; 
 -----------------------------------------------------------------------------
  17  Screening settings (-IFTHRS, JTDIIS, DIFDEN, times)   -9    5    T  2.85D+01  2.85D+01
@ 17  -433.935040138       8.27D-01  -1.13D-01    16  10   4   2
      Virial theorem: -V/T =      1.998672
@    MULPOP   C       2.02; C   _1 -0.13; C   _2 -0.13; C   _1  0.68; C   _2  0.68; C       0.29; N       0.33; O   _1 -0.66; O   _2 -0.66; H   _1 -0.51; 
@             H   _2 -0.51; H   _1 -0.46; H   _2 -0.46; H      -0.48; 
 -----------------------------------------------------------------------------
  18  Screening settings (-IFTHRS, JTDIIS, DIFDEN, times)   -9    6    T  2.86D+01  2.86D+01
@ 18  -433.971585704       1.95D-01  -3.65D-02    16  10   4   2
      Virial theorem: -V/T =      1.998920
@    MULPOP   C       1.96; C   _1 -0.07; C   _2 -0.07; C   _1  0.61; C   _2  0.61; C       0.30; N       0.27; O   _1 -0.64; O   _2 -0.64; H   _1 -0.50; 
@             H   _2 -0.50; H   _1 -0.45; H   _2 -0.45; H      -0.46; 
 -----------------------------------------------------------------------------
  19  Screening settings (-IFTHRS, JTDIIS, DIFDEN, times)   -9    7    T  2.86D+01  2.86D+01
@ 19  -433.976551130       8.04D-02  -4.97D-03    16  10   4   2
      Virial theorem: -V/T =      1.999222
@    MULPOP   C       1.96; C   _1 -0.03; C   _2 -0.03; C   _1  0.57; C   _2  0.57; C       0.31; N       0.33; O   _1 -0.68; O   _2 -0.68; H   _1 -0.49; 
@             H   _2 -0.49; H   _1 -0.44; H   _2 -0.44; H      -0.45; 
 -----------------------------------------------------------------------------
  20  Screening settings (-IFTHRS, JTDIIS, DIFDEN, times)   -9    8    T  2.86D+01  2.86D+01
@ 20  -433.977424001       3.02D-02  -8.73D-04    16  10   4   2
      Virial theorem: -V/T =      1.999218
@    MULPOP   C       1.96; C   _1 -0.02; C   _2 -0.02; C   _1  0.57; C   _2  0.57; C       0.31; N       0.33; O   _1 -0.69; O   _2 -0.69; H   _1 -0.49; 
@             H   _2 -0.49; H   _1 -0.44; H   _2 -0.44; H      -0.46; 
 -----------------------------------------------------------------------------
  21  Screening settings (-IFTHRS, JTDIIS, DIFDEN, times)   -9    9    T  2.81D+01  2.81D+01
@ 21  -433.977553702       9.30D-03  -1.30D-04    16  10   4   2
      Virial theorem: -V/T =      1.999185
@    MULPOP   C       1.96; C   _1 -0.02; C   _2 -0.02; C   _1  0.56; C   _2  0.56; C       0.31; N       0.33; O   _1 -0.69; O   _2 -0.69; H   _1 -0.49; 
@             H   _2 -0.49; H   _1 -0.44; H   _2 -0.44; H      -0.46; 
 -----------------------------------------------------------------------------
  22  Screening settings (-IFTHRS, JTDIIS, DIFDEN, times)  -13   10    F  2.88D+01  2.88D+01
@ 22  -433.977566119       3.15D-03  -1.24D-05    16  10   4   2
      Virial theorem: -V/T =      1.999205
@    MULPOP   C       1.95; C   _1 -0.01; C   _2 -0.01; C   _1  0.56; C   _2  0.56; C       0.32; N       0.33; O   _1 -0.69; O   _2 -0.69; H   _1 -0.49; 
@             H   _2 -0.49; H   _1 -0.44; H   _2 -0.44; H      -0.46; 
 -----------------------------------------------------------------------------
  23  Screening settings (-IFTHRS, JTDIIS, DIFDEN, times)  -13   11    T  2.87D+01  2.87D+01
@ 23  -433.977567271       9.78D-04  -1.15D-06    16  10   4   2
      Virial theorem: -V/T =      1.999205
@    MULPOP   C       1.95; C   _1 -0.01; C   _2 -0.01; C   _1  0.56; C   _2  0.56; C       0.32; N       0.33; O   _1 -0.69; O   _2 -0.69; H   _1 -0.49; 
@             H   _2 -0.49; H   _1 -0.44; H   _2 -0.44; H      -0.46; 
 -----------------------------------------------------------------------------
  24  Screening settings (-IFTHRS, JTDIIS, DIFDEN, times)  -13   12    T  2.86D+01  2.86D+01
@ 24  -433.977567390       3.46D-04  -1.20D-07    16  10   4   2
      Virial theorem: -V/T =      1.999203
@    MULPOP   C       1.95; C   _1 -0.01; C   _2 -0.01; C   _1  0.56; C   _2  0.56; C       0.32; N       0.33; O   _1 -0.69; O   _2 -0.69; H   _1 -0.49; 
@             H   _2 -0.49; H   _1 -0.44; H   _2 -0.44; H      -0.46; 
 -----------------------------------------------------------------------------
  25  Screening settings (-IFTHRS, JTDIIS, DIFDEN, times)  -13   13    T  2.85D+01  2.86D+01
@ 25  -433.977567411       1.21D-04  -2.06D-08    16  10   4   2
      Virial theorem: -V/T =      1.999204
@    MULPOP   C       1.95; C   _1 -0.01; C   _2 -0.01; C   _1  0.56; C   _2  0.56; C       0.32; N       0.33; O   _1 -0.69; O   _2 -0.69; H   _1 -0.49; 
@             H   _2 -0.49; H   _1 -0.44; H   _2 -0.44; H      -0.46; 
 -----------------------------------------------------------------------------
  26  Screening settings (-IFTHRS, JTDIIS, DIFDEN, times)  -13   14    T  2.84D+01  2.84D+01
@ 26  -433.977567415       6.34D-05  -4.10D-09    16  10   4   2
      Virial theorem: -V/T =      1.999204
@    MULPOP   C       1.95; C   _1 -0.01; C   _2 -0.01; C   _1  0.56; C   _2  0.56; C       0.32; N       0.33; O   _1 -0.69; O   _2 -0.69; H   _1 -0.49; 
@             H   _2 -0.49; H   _1 -0.44; H   _2 -0.44; H      -0.46; 
 -----------------------------------------------------------------------------
  27  Screening settings (-IFTHRS, JTDIIS, DIFDEN, times)  -13   15    T  2.84D+01  2.84D+01
@ 27  -433.977567416       2.89D-05  -1.31D-09    16  10   4   2
      Virial theorem: -V/T =      1.999204
@    MULPOP   C       1.95; C   _1 -0.01; C   _2 -0.01; C   _1  0.56; C   _2  0.56; C       0.32; N       0.33; O   _1 -0.69; O   _2 -0.69; H   _1 -0.49; 
@             H   _2 -0.49; H   _1 -0.44; H   _2 -0.44; H      -0.46; 
 -----------------------------------------------------------------------------
  28  Screening settings (-IFTHRS, JTDIIS, DIFDEN, times)  -13   16    T  2.84D+01  2.84D+01
@ 28  -433.977567417       7.52D-06  -3.00D-10    16  10   4   2
      Virial theorem: -V/T =      1.999204
@    MULPOP   C       1.95; C   _1 -0.01; C   _2 -0.01; C   _1  0.56; C   _2  0.56; C       0.32; N       0.33; O   _1 -0.69; O   _2 -0.69; H   _1 -0.49; 
@             H   _2 -0.49; H   _1 -0.44; H   _2 -0.44; H      -0.46; 
 -----------------------------------------------------------------------------
  29  Screening settings (-IFTHRS, JTDIIS, DIFDEN, times)  -13   17    T  2.82D+01  2.82D+01
@ 29  -433.977567417       2.74D-06  -2.11D-11    16  10   4   2
      Virial theorem: -V/T =      1.999204
@    MULPOP   C       1.95; C   _1 -0.01; C   _2 -0.01; C   _1  0.56; C   _2  0.56; C       0.32; N       0.33; O   _1 -0.69; O   _2 -0.69; H   _1 -0.49; 
@             H   _2 -0.49; H   _1 -0.44; H   _2 -0.44; H      -0.46; 
 -----------------------------------------------------------------------------
  30  Screening settings (-IFTHRS, JTDIIS, DIFDEN, times)  -13   18    T  2.81D+01  2.81D+01
@ 30  -433.977567417       9.04D-07   3.30D-12    16  10   4   2

@ *** DIIS converged in  30 iterations !
@     Converged SCF energy, gradient:   -433.977567416654    9.04D-07
    - total time used in SIRFCK :              0.00 seconds

 --- Writing SIRIFC interface file

 CPU and wall time for SCF :     851.781     851.913


 ----- Output from SIRIUS MP2 module -----

 Reference: H.J.Aa.Jensen, P.Jorgensen, H.Agren, and J.Olsen,
            J. Chem. Phys. 88, 3834 (1988); 89, 5354 (1988)

 Checking that the closed shell orbitals are canonical Hartree-Fock orbitals

    Number of electrons  :   64
    Closed shell orbitals:   16   10    4    2

 Generating Fock matrix

 Hartree-Fock electronic energy:        -847.406824835644
 Hartree-Fock total      energy:        -433.977567416644

 Hartree-Fock orbital energies, symmetry 1 ( A1 ),   16 occupied SCF orbitals

       -20.69551241   -15.67814282   -11.34796591   -11.26438400   -11.25739836
       -11.24545887    -1.84205129    -1.19802810    -1.11230566    -1.00254603
        -0.86287734    -0.77907384    -0.70480888    -0.67632854    -0.62519653
        -0.53103449     0.03315266     0.04546115     0.06348902     0.10795935
         0.12423757     0.14141086     0.15584978     0.15748159     0.17040865
         0.18411152     0.20359079     0.26522627     0.26847318     0.29245148
         0.32221014     0.33562326     0.34576190     0.36019429     0.36562015
         0.39224072     0.41018109     0.42486015     0.45504072     0.47940656
         0.51325615     0.57167977     0.57566496     0.62058116     0.62476692
         0.66848397     0.67535509     0.69300049     0.71848468     0.76070511
         0.78606452     0.84979695     0.90409252     0.91399108     0.95756997
         0.99435141     1.02053998     1.06810882     1.08687188     1.11197377
         1.19217983     1.29210265     1.33622486     1.41010778     1.49161618
         1.53853455     1.54309339     1.58818536     1.60390919     1.63111169
         1.71631385     1.73376055     1.76820987     1.79990721     1.86987264
         1.96023140     1.99372631     2.03338058     2.03851948     2.20997632
         2.23617500     2.29648401     2.40319070     2.40793613     2.44279378
         2.51918541     2.58353215     2.67987537     2.74958455     2.83932955
         2.91402860     2.96439954     3.05571862     3.15929014     3.24850720
         3.32164059     3.47101540     3.76666678     3.96373306     4.18713680
        19.82292805    20.33311901    20.47278084    20.64079093    23.37079202
        23.43950972    23.48859443    23.81311564    23.91242874    24.13063509
        27.35568019    31.69304935    35.77807835    39.79654150    40.09438897

 Hartree-Fock orbital energies, symmetry 2 ( B1 ),   10 occupied SCF orbitals

       -20.69499369   -11.26436167   -11.25741253    -1.22735204    -1.03925062
        -0.85378443    -0.66992149    -0.62528046    -0.60908536    -0.51839337
         0.03871235     0.05687059     0.13268659     0.13659701     0.15002027
         0.16029945     0.18068065     0.20783069     0.25502474     0.28740911
         0.29910623     0.30576597     0.32661214     0.35255202     0.37118396
         0.39110318     0.41169638     0.43243817     0.45383307     0.54821636
         0.57072664     0.58398350     0.64295558     0.65860480     0.68357329
         0.70295507     0.76213717     0.77851809     0.83436561     0.85214911
         0.88250820     0.89539783     1.03494395     1.17112750     1.22660697
         1.32376371     1.33234586     1.37186627     1.49078519     1.50744850
         1.52271223     1.55257597     1.60910954     1.65096693     1.72217959
         1.77036081     1.78674728     1.83071687     1.87275601     1.93224416
         2.05527508     2.15120300     2.17593531     2.31463849     2.33256185
         2.39213891     2.44468543     2.48061111     2.57404899     2.73273145
         2.90977183     2.94761756     3.15999760     3.33528725     3.36425631
         3.42899853     3.85845112     4.20728748     4.51186309    20.29687229
        20.48022997    22.88268543    23.33175636    23.39617204    23.96104006
        24.13438852    24.32136722    31.34671247    35.66623290    39.70101360
        39.87613150

 Hartree-Fock orbital energies, symmetry 3 ( B2 ),    4 occupied SCF orbitals

        -0.84594565    -0.53924407    -0.42225233    -0.29509162     0.10520842
         0.11992880     0.13887566     0.18535440     0.19100933     0.23581575
         0.30016775     0.34074462     0.39235074     0.46728623     0.54726645
         0.59971505     0.67159036     0.72187875     0.79577235     0.87699961
         0.90293413     0.93305185     0.94984491     1.03460560     1.09519990
         1.15637094     1.18209377     1.48170536     1.52549834     1.63034871
         1.67748204     1.71821896     1.83739477     1.93407409     2.05704882
         2.09860888     2.17925930     2.30955898     2.57703211     2.69896878
         3.30006269     3.85031388    22.56499095    22.71437792    22.84468826
        23.04249853    30.74403992    39.42866357

 Hartree-Fock orbital energies, symmetry 4 ( A2 ),    2 occupied SCF orbitals

        -0.48871675    -0.35872867     0.09395955     0.13702249     0.19092407
         0.28070424     0.41857298     0.49468350     0.55120688     0.65844661
         0.74536606     0.88965547     0.90993902     0.94840008     1.04266552
         1.08108438     1.23064696     1.25557987     1.44204793     1.56309127
         1.69234629     1.70284383     1.88164479     1.91397544     2.11642617
         2.19330502     2.36167547     2.53436565     2.62806499     3.80118933
         3.91610400    22.70958078    22.87893778    39.37471862

    E(LUMO) :     0.03315266   (in symmetry 1)
  - E(HOMO) :    -0.29509162   (in symmetry 3)
  --------------------------
    gap     :     0.32824428

---> (Re)generating AOTWOINT


     ************************************************************************
     ************************** Output from HERINT **************************
     ************************************************************************


 Threshold for neglecting two-electron integrals:  1.00D-12
 HERMIT - Number of two-electron integrals written:   199202909 ( 23.0% )
 HERMIT - Megabytes written:                           3040.863

  Time used in TWOINT     is      38.83 seconds

 2-el. integral transformation level 5: Total CPU and WALL times (sec)     416.547     418.268

 MP2 move   0.924090 electrons to unoccupied HF orbitals


@   Hartree-Fock total energy   :          -433.9775674166
@   + MP2 contribution          :            -1.6781339076
@   = MP2 second order energy   :          -435.6557013242

 Natural orbital occupation numbers, symmetry 1 (irrep A1 )
 Sum =    31.96873253; RHF =    32.00000000; Difference =    -0.03126747

         1.99928897     1.99906166     1.99876105     1.99875738     1.99875194
         1.99874828     1.98863330     1.98419721     1.97975185     1.97424787
         1.96967736     1.96626873     1.96320500     1.95712988     1.95125159
         1.94056664     0.03826062     0.02623113     0.02429839     0.02301654
         0.01903030     0.01748315     0.01668139     0.01360613     0.01337058
         0.01228133     0.00999687     0.00895322     0.00829317     0.00790890
         0.00683106     0.00645085     0.00467266     0.00438303     0.00333997
         0.00298403     0.00290220     0.00270833     0.00236360     0.00210498
         0.00196293     0.00169575     0.00153818     0.00129883     0.00127553
         0.00115845     0.00106981     0.00096368     0.00073766     0.00065768
         0.00061835     0.00051253     0.00049016     0.00044725     0.00042533
         0.00041576     0.00039862     0.00037555     0.00035702     0.00034330
         0.00033627     0.00031781     0.00031568     0.00030217     0.00028220
         0.00026137     0.00023415     0.00022765     0.00021816     0.00019861
         0.00019353     0.00018464     0.00017700     0.00017613     0.00016789
         0.00016071     0.00015252     0.00014603     0.00014165     0.00013660
         0.00013323     0.00012968     0.00011750     0.00010543     0.00010210
         0.00009385     0.00007901     0.00006634     0.00005930     0.00005310
         0.00004600     0.00003715     0.00003486     0.00002838     0.00002343
         0.00001731     0.00001417     0.00001266     0.00001087     0.00000974
         0.00000943     0.00000764     0.00000693     0.00000443     0.00000246
         0.00000136     0.00000112     0.00000071     0.00000063     0.00000033
         0.00000018     0.00000010    -0.00000008    -0.00000029    -0.00000081

 Natural orbital occupation numbers, symmetry 2 (irrep B1 )
 Sum =    20.01715547; RHF =    20.00000000; Difference =     0.01715547

         1.99928595     1.99875753     1.99874962     1.98114972     1.97996622
         1.97253355     1.96079286     1.95557340     1.95423166     1.94839265
         0.05141697     0.03468703     0.02498664     0.02320886     0.01705510
         0.01642668     0.01573799     0.01181247     0.00955206     0.00911212
         0.00803108     0.00555056     0.00533289     0.00351695     0.00321776
         0.00304745     0.00250861     0.00221689     0.00217331     0.00169896
         0.00163065     0.00154208     0.00135590     0.00130838     0.00105658
         0.00098696     0.00067940     0.00064393     0.00054333     0.00046010
         0.00042581     0.00041980     0.00037046     0.00034885     0.00033759
         0.00029822     0.00029337     0.00028049     0.00025018     0.00021476
         0.00020889     0.00019682     0.00018917     0.00018318     0.00017976
         0.00017165     0.00016759     0.00016383     0.00015210     0.00014691
         0.00014210     0.00013273     0.00012467     0.00012046     0.00011474
         0.00010294     0.00009411     0.00007794     0.00005799     0.00004879
         0.00004228     0.00003156     0.00003047     0.00002376     0.00001627
         0.00001371     0.00001208     0.00001099     0.00000949     0.00000844
         0.00000448     0.00000306     0.00000143     0.00000132     0.00000056
         0.00000035     0.00000027     0.00000013    -0.00000013    -0.00000064
        -0.00000118

 Natural orbital occupation numbers, symmetry 3 (irrep B2 )
 Sum =     7.99339416; RHF =     8.00000000; Difference =    -0.00660584

         1.97748258     1.95898040     1.94528280     1.90752403     0.07086815
         0.03205315     0.01742597     0.01425031     0.01092154     0.01018057
         0.00898815     0.00714587     0.00677477     0.00534425     0.00404078
         0.00334103     0.00223284     0.00163040     0.00147603     0.00091249
         0.00089791     0.00070802     0.00055834     0.00048557     0.00047360
         0.00042862     0.00039032     0.00034818     0.00030463     0.00024507
         0.00021552     0.00020183     0.00019210     0.00018277     0.00017247
         0.00013805     0.00012632     0.00011915     0.00009959     0.00009381
         0.00007874     0.00005572     0.00002446     0.00001737     0.00000971
         0.00000771     0.00000177    -0.00003930

 Natural orbital occupation numbers, symmetry 4 (irrep A2 )
 Sum =     4.02071783; RHF =     4.00000000; Difference =     0.02071783

         1.96761853     1.91307235     0.06963414     0.01589323     0.01104666
         0.00972046     0.00736776     0.00581577     0.00438307     0.00375298
         0.00279154     0.00213922     0.00146700     0.00096745     0.00079686
         0.00074556     0.00063092     0.00053933     0.00041607     0.00037606
         0.00031174     0.00023694     0.00019797     0.00019188     0.00015860
         0.00013537     0.00012424     0.00010012     0.00007531     0.00005105
         0.00002242     0.00001897     0.00000831    -0.00009003

 Time used for MP2 natural orbitals :     448.891 CPU seconds,     450.620 wall seconds.

 CPU and wall time for MP2 :     448.891     450.620


        SIRIUS MCSCF optimization (SIROPT)
 ================================================


 Fock matrix screening setting for SIRCNO: IFTHRS =    9


 ----- Output from SIRIUS CI module (CICTL) -----




 2-el. integral transformation level 0: Total CPU and WALL times (sec)     100.062     100.065


 --- SIRCI.CIST1: plus combination of all degenerate
                 configurations is used as start vectors.


 (CIST1) 8 lowest diagonal elements:

 Element no. Config.no.    Active energy      Total energy

         1 :          1    -15.4958579451   -433.9654723207
         2 :          2    -15.2030907818   -433.6727051574
         3 :          6    -15.2030907818   -433.6727051574
         4 :          3    -14.9291261026   -433.3987404782
         5 :         11    -14.9291261026   -433.3987404782
         6 :          7    -14.8955736099   -433.3651879855
         7 :         44    -14.8770528465   -433.3466672221
         8 :         45    -14.7723772899   -433.2419916655


 Convergence threshold for CI optimization :     0.00000500



 *** Reached maximum number of CI iterations:    3
              1 CI roots are not converged.


@ Final CI energies and residuals in symmetry 1 (irrep A1 )
@    1     -434.001013326276393       4.42D-03

   --- OUTPUT FROM SIRCNO     Keyword = FD+NO 


 Occupations of CAS natural orbitals:

 Symmetry  1 ( irrep A1  in C2v )

   1.972357683

 Symmetry  2 ( irrep B1  in C2v )

   0.028740744

 Symmetry  3 ( irrep B2  in C2v )

   1.997111247   1.988785309

 Symmetry  4 ( irrep A2  in C2v )

   1.998901379   1.973756927   0.040346710


 --- MACRO ITERATION  1 ---
 --------------------------

 2-el. integral transformation level 3: Total CPU and WALL times (sec)     102.828     102.896

 Fock matrix screening setting for this macro iteration: 10^( -9)

 Total MCSCF energy       :          -434.001013329464342  (MACRO    1)

 - Nuclear repulsion      :           413.429257419000294
 - Inactive energy        :          -831.898871798842833
 - Active energy          :           -15.531398949621813

 Norm of total gradient   :             0.421640792886
 -    of CI gradient      :             0.008834070426
 -    of orbital gradient :             0.421548238551
      Virial theorem: -V/T =      1.987861
@    MULPOP   C       1.92; C   _1  0.14; C   _2  0.14; C   _1  0.48; C   _2  0.48; C       0.41; N       1.36; O   _1 -1.20; O   _2 -1.20; H   _1 -0.54; 
@             H   _2 -0.54; H   _1 -0.47; H   _2 -0.47; H      -0.49; 

 Residual norm when dim(red L) =   7
 NEO root     CSF        orbital          total
    1     0.01141388     0.00428070     0.01219021 converged

 (NEONEX) NEO vector is converged.

   --- OUTPUT FROM SIRCNO     Keyword = FD+NO 


 Occupations of CAS natural orbitals:

 Symmetry  1 ( irrep A1  in C2v )

   1.931926311

 Symmetry  2 ( irrep B1  in C2v )

   0.069878021

 Symmetry  3 ( irrep B2  in C2v )

   1.997163215   1.987454530

 Symmetry  4 ( irrep A2  in C2v )

   1.998195116   1.970656082   0.044726725


 --- MACRO ITERATION  2 ---
 --------------------------

 2-el. integral transformation level 3: Total CPU and WALL times (sec)     100.375     100.399

 Fock matrix screening setting for this macro iteration: 10^( -9)

 Total MCSCF energy       :          -434.021880917925671  (MACRO    2)

 - Nuclear repulsion      :           413.429257419000294
 - Inactive energy        :          -831.613191876655719
 - Active energy          :           -15.837946460270226

 Norm of total gradient   :             0.149513543563
 -    of CI gradient      :             0.141003075260
 -    of orbital gradient :             0.049723560574
      Virial theorem: -V/T =      1.986478
@    MULPOP   C       2.20; C   _1 -0.04; C   _2 -0.04; C   _1  0.56; C   _2  0.56; C       0.34; N       1.57; O   _1 -1.41; O   _2 -1.41; H   _1 -0.50; 
@             H   _2 -0.50; H   _1 -0.44; H   _2 -0.44; H      -0.45; 

 Residual norm when dim(red L) =   6
 NEO root     CSF        orbital          total
    1     0.01745083     0.01215607     0.02126738 converged

 (NEONEX) NEO vector is converged.

   --- OUTPUT FROM SIRCNO     Keyword = FD+NO 


 Occupations of CAS natural orbitals:

 Symmetry  1 ( irrep A1  in C2v )

   1.959762911

 Symmetry  2 ( irrep B1  in C2v )

   0.041871105

 Symmetry  3 ( irrep B2  in C2v )

   1.997271586   1.988058120

 Symmetry  4 ( irrep A2  in C2v )

   1.998365773   1.972382631   0.042287873


 --- MACRO ITERATION  3 ---
 --------------------------

 2-el. integral transformation level 3: Total CPU and WALL times (sec)     102.078     102.080

 Fock matrix screening setting for this macro iteration: 10^( -9)

 Total MCSCF energy       :          -434.025912792380609  (MACRO    3)

 - Nuclear repulsion      :           413.429257419000294
 - Inactive energy        :          -831.591716804527664
 - Active energy          :           -15.863453406853216

 Norm of total gradient   :             0.021543515498
 -    of CI gradient      :             0.017568556256
 -    of orbital gradient :             0.012468716498
      Virial theorem: -V/T =      1.986301
@    MULPOP   C       2.16; C   _1 -0.04; C   _2 -0.04; C   _1  0.56; C   _2  0.56; C       0.34; N       1.64; O   _1 -1.42; O   _2 -1.42; H   _1 -0.49; 
@             H   _2 -0.49; H   _1 -0.44; H   _2 -0.44; H      -0.46; 

 Residual norm when dim(red L) =   9
 NEO root     CSF        orbital          total
    1     0.00054141     0.00024836     0.00059566 converged

 (NEONEX) NEO vector is converged.

   --- OUTPUT FROM SIRCNO     Keyword = FD+NO 


 Occupations of CAS natural orbitals:

 Symmetry  1 ( irrep A1  in C2v )

   1.959926760

 Symmetry  2 ( irrep B1  in C2v )

   0.041784269

 Symmetry  3 ( irrep B2  in C2v )

   1.997535244   1.986871904

 Symmetry  4 ( irrep A2  in C2v )

   1.998288149   1.969347243   0.046246431


 --- MACRO ITERATION  4 ---
 --------------------------

 2-el. integral transformation level 3: Total CPU and WALL times (sec)     100.125     100.131

 Fock matrix screening setting for this macro iteration: 10^( -9)

 Total MCSCF energy       :          -434.026060694835962  (MACRO    4)

 - Nuclear repulsion      :           413.429257419000294
 - Inactive energy        :          -831.581500158783683
 - Active energy          :           -15.873817955052566

 Norm of total gradient   :             0.001210659815
 -    of CI gradient      :             0.001180887152
 -    of orbital gradient :             0.000266838383
      Virial theorem: -V/T =      1.986417
@    MULPOP   C       2.14; C   _1 -0.04; C   _2 -0.04; C   _1  0.56; C   _2  0.56; C       0.33; N       1.64; O   _1 -1.41; O   _2 -1.41; H   _1 -0.49; 
@             H   _2 -0.49; H   _1 -0.44; H   _2 -0.44; H      -0.45; 

 Residual norm when dim(red L) =  17
 NEO root     CSF        orbital          total
    1     0.00000268     0.00000287     0.00000392 converged

 (NEONEX) NEO vector is converged.

   --- OUTPUT FROM SIRCNO     Keyword = FD+NO 


 Occupations of CAS natural orbitals:

 Symmetry  1 ( irrep A1  in C2v )

   1.960127081

 Symmetry  2 ( irrep B1  in C2v )

   0.041584204

 Symmetry  3 ( irrep B2  in C2v )

   1.997565569   1.986836668

 Symmetry  4 ( irrep A2  in C2v )

   1.998287899   1.969359900   0.046238679


 --- MACRO ITERATION  5 ---
 --------------------------

 2-el. integral transformation level 3: Total CPU and WALL times (sec)     102.047     102.059

 Fock matrix screening setting for this macro iteration: 10^( -9)

 Total MCSCF energy       :          -434.026061030145570  (MACRO    5)

 - Nuclear repulsion      :           413.429257419000294
 - Inactive energy        :          -831.580945288795306
 - Active energy          :           -15.874373160350586

 Norm of total gradient   :             0.000004140577
 -    of CI gradient      :             0.000003011307
 -    of orbital gradient :             0.000002841902
      Virial theorem: -V/T =      1.986421
@    MULPOP   C       2.14; C   _1 -0.04; C   _2 -0.04; C   _1  0.56; C   _2  0.56; C       0.33; N       1.64; O   _1 -1.41; O   _2 -1.41; H   _1 -0.49; 
@             H   _2 -0.49; H   _1 -0.44; H   _2 -0.44; H      -0.45; 

 *** Optimization control: MCSCF converged ***
     Number of macro iterations used            5
     Number of micro iterations used           32
     Total number of CPU seconds used      1920.16

 CPU and wall time for MCSCF :    1920.156    1920.532


                     .----------------------------------------.
                     | --- SIRIUS OPTIMIZATION STATISTICS --- |
                     `----------------------------------------'


 
     Date and time (Linux)  : Sun Dec 15 04:35:05 2019
     Host name              : Lab2-333-NPs                            


  ITER ITMIC     EMCSCF           GRDNRM        RATIO      STPLNG
 ---------------------------------------------------------------------
    1    6   -434.001013329464   0.4216407929  0.000000   0.6937013441
    2    4   -434.021880917926   0.1495135436  0.574217   0.1167452238
    3    7   -434.025912792381   0.0215435155  1.028895   0.0486736706
    4   15   -434.026060694836   0.0012106598  1.004241   0.0049593829
    5    0   -434.026061030146   0.0000041406  1.001215   0.0000000000


  ITER  INDGCM  GCIMAX      GCINRM     INDGOM  GOBMAX      GOBNRM      GRDNRM
 ------------------------------------------------------------------------------
[...]



 ---  SOLVING SETS OF LINEAR EQUATIONS FOR LINEAR RESPONSE PROPERTIES ---

 Operator symmetry = 4  ( A2 ); triplet =   F


 ** RSPCTL MICROITERATION NUMBER    1

       No.  Residual tot.,    conf., and orb.    Bnorm      Frequency 
      ----------------------------------------------------------------
         1    6.87118D+00  4.61D-01  6.86D+00  5.96D+01    0.00000D+00

 ** RSPCTL MICROITERATION NUMBER    2

       No.  Residual tot.,    conf., and orb.    Bnorm      Frequency 
      ----------------------------------------------------------------
         1    1.97549D+00  5.65D-01  1.89D+00  6.45D+01    0.00000D+00

 ** RSPCTL MICROITERATION NUMBER    3

       No.  Residual tot.,    conf., and orb.    Bnorm      Frequency 
      ----------------------------------------------------------------
         1    8.45213D-01  6.08D-01  5.87D-01  6.54D+01    0.00000D+00

 ** RSPCTL MICROITERATION NUMBER    4

       No.  Residual tot.,    conf., and orb.    Bnorm      Frequency 
      ----------------------------------------------------------------
         1    7.16732D-01  9.96D-02  7.10D-01  6.55D+01    0.00000D+00

 ** RSPCTL MICROITERATION NUMBER    5

       No.  Residual tot.,    conf., and orb.    Bnorm      Frequency 
      ----------------------------------------------------------------
         1    4.77063D-01  1.68D-01  4.47D-01  6.70D+01    0.00000D+00

 ** RSPCTL MICROITERATION NUMBER    6

       No.  Residual tot.,    conf., and orb.    Bnorm      Frequency 
      ----------------------------------------------------------------
         1    9.72332D-01  2.90D-01  9.28D-01  7.73D+01    0.00000D+00

 ** RSPCTL MICROITERATION NUMBER    7

 *** INFO, negative eigenvalues in reduced matrix. Symmetry  4,  triplet       F Dimension of reduced matrix =    16

 GP * SOLUTION vector at frequency     0.00000 a.u.
 after    8 linear transformations is      2.01990991D+03
 INERTIA (POS,ZER,NEG) of reduced matrix is   15    0    1
 Determinant of reduced matrix is -3.40 * 10 **-14.0

       No.  Residual tot.,    conf., and orb.    Bnorm      Frequency 
      ----------------------------------------------------------------
         1    1.48275D+00  3.23D-01  1.45D+00  1.02D+02    0.00000D+00

 ** RSPCTL MICROITERATION NUMBER    8

 *** INFO, negative eigenvalues in reduced matrix. Symmetry  4,  triplet       F Dimension of reduced matrix =    18

 GP * SOLUTION vector at frequency     0.00000 a.u.
 after    9 linear transformations is      2.02063640D+03
 INERTIA (POS,ZER,NEG) of reduced matrix is   17    0    1
 Determinant of reduced matrix is -1.92 * 10 **-16.0

       No.  Residual tot.,    conf., and orb.    Bnorm      Frequency 
      ----------------------------------------------------------------
         1    3.27230D-01  2.37D-01  2.26D-01  7.50D+01    0.00000D+00

 ** RSPCTL MICROITERATION NUMBER    9

 *** INFO, negative eigenvalues in reduced matrix. Symmetry  4,  triplet       F Dimension of reduced matrix =    20

 GP * SOLUTION vector at frequency     0.00000 a.u.
 after   10 linear transformations is      2.02070118D+03
 INERTIA (POS,ZER,NEG) of reduced matrix is   19    0    1
 Determinant of reduced matrix is -1.27 * 10 **-16.0

       No.  Residual tot.,    conf., and orb.    Bnorm      Frequency 
      ----------------------------------------------------------------
         1    2.65024D-01  4.29D-02  2.62D-01  7.39D+01    0.00000D+00

 ** RSPCTL MICROITERATION NUMBER   10

 *** INFO, negative eigenvalues in reduced matrix. Symmetry  4,  triplet       F Dimension of reduced matrix =    22

 GP * SOLUTION vector at frequency     0.00000 a.u.
 after   11 linear transformations is      2.02074776D+03
 INERTIA (POS,ZER,NEG) of reduced matrix is   21    0    1
 Determinant of reduced matrix is -9.95 * 10 **-19.0

       No.  Residual tot.,    conf., and orb.    Bnorm      Frequency 
      ----------------------------------------------------------------
         1    9.20750D-02  4.69D-02  7.92D-02  7.30D+01    0.00000D+00

 ** RSPCTL MICROITERATION NUMBER   11

 *** INFO, negative eigenvalues in reduced matrix. Symmetry  4,  triplet       F Dimension of reduced matrix =    24

 GP * SOLUTION vector at frequency     0.00000 a.u.
 after   12 linear transformations is      2.02075456D+03
 INERTIA (POS,ZER,NEG) of reduced matrix is   23    0    1
 Determinant of reduced matrix is -2.02 * 10 **-21.0

       No.  Residual tot.,    conf., and orb.    Bnorm      Frequency 
      ----------------------------------------------------------------
         1    6.24930D-02  4.98D-02  3.77D-02  7.29D+01    0.00000D+00

 *** THE REQUESTED    1 SOLUTION VECTORS CONVERGED

 Convergence of RSP solution vectors, threshold = 1.00D-03
 ---------------------------------------------------------------
 (dimension of paired reduced space:   24)
 RSP solution vector no.    1; norm of residual   8.57D-04

 *** RSPCTL MICROITERATIONS CONVERGED
    XDIPLEN     YDIPLEN      freq1     freq2                Norm
 ---------------------------------------------------------------
                          0.058400 -0.058400         72.91553672


 Perturbation symmetry.     KSYMOP:       1
 Perturbation spin symmetry.TRPLET:       F
 Orbital variables.         KZWOPT:    2762
 Configuration variables.   KZCONF:     115
 Total number of variables. KZVAR :    2877


 CRLRV2 -- linear response calc for sym:  1
 CRLRV2 -- operator label1: YDIPLEN 
 CRLRV2 -- operator label2: YDIPLEN 
 CRLRV2 -- freqr1 :   5.840000D-02
 CRLRV2 -- freqr2 :   5.840000D-02



 ---  SOLVING SETS OF LINEAR EQUATIONS FOR LINEAR RESPONSE PROPERTIES ---

 Operator symmetry = 1  ( A1 ); triplet =   F


 ** RSPCTL MICROITERATION NUMBER    1

       No.  Residual tot.,    conf., and orb.    Bnorm      Frequency 
      ----------------------------------------------------------------
         1    1.82329D+01  1.14D+00  1.82D+01  1.01D+02    1.16800D-01

 ** RSPCTL MICROITERATION NUMBER    2

       No.  Residual tot.,    conf., and orb.    Bnorm      Frequency 
      ----------------------------------------------------------------
         1    8.80144D+00  8.75D-01  8.76D+00  1.09D+02    1.16800D-01

 ** RSPCTL MICROITERATION NUMBER    3

       No.  Residual tot.,    conf., and orb.    Bnorm      Frequency 
      ----------------------------------------------------------------
         1    3.44294D+00  1.11D+00  3.26D+00  1.12D+02    1.16800D-01

 ** RSPCTL MICROITERATION NUMBER    4

       No.  Residual tot.,    conf., and orb.    Bnorm      Frequency 
      ----------------------------------------------------------------
         1    2.14698D+00  1.20D+00  1.78D+00  1.12D+02    1.16800D-01

 ** RSPCTL MICROITERATION NUMBER    5

       No.  Residual tot.,    conf., and orb.    Bnorm      Frequency 
      ----------------------------------------------------------------
         1    1.50897D+00  1.25D+00  8.39D-01  1.12D+02    1.16800D-01

 ** RSPCTL MICROITERATION NUMBER    6

       No.  Residual tot.,    conf., and orb.    Bnorm      Frequency 
      ----------------------------------------------------------------
         1    1.57311D+00  2.82D-01  1.55D+00  1.12D+02    1.16800D-01

 ** RSPCTL MICROITERATION NUMBER    7

       No.  Residual tot.,    conf., and orb.    Bnorm      Frequency 
      ----------------------------------------------------------------
         1    7.61269D-01  2.87D-01  7.05D-01  1.12D+02    1.16800D-01

 ** RSPCTL MICROITERATION NUMBER    8

       No.  Residual tot.,    conf., and orb.    Bnorm      Frequency 
      ----------------------------------------------------------------
         1    3.93571D-01  2.87D-01  2.69D-01  1.12D+02    1.16800D-01

 ** RSPCTL MICROITERATION NUMBER    9

       No.  Residual tot.,    conf., and orb.    Bnorm      Frequency 
      ----------------------------------------------------------------
         1    2.94219D-01  8.76D-02  2.81D-01  1.12D+02    1.16800D-01

 ** RSPCTL MICROITERATION NUMBER   10

       No.  Residual tot.,    conf., and orb.    Bnorm      Frequency 
      ----------------------------------------------------------------
         1    1.70894D-01  8.55D-02  1.48D-01  1.12D+02    1.16800D-01

 ** RSPCTL MICROITERATION NUMBER   11

       No.  Residual tot.,    conf., and orb.    Bnorm      Frequency 
      ----------------------------------------------------------------
         1    9.45625D-02  8.16D-02  4.77D-02  1.12D+02    1.16800D-01

 *** THE REQUESTED    1 SOLUTION VECTORS CONVERGED

 Convergence of RSP solution vectors, threshold = 1.00D-03
 ---------------------------------------------------------------
 (dimension of paired reduced space:   24)
 RSP solution vector no.    1; norm of residual   8.42D-04

 *** RSPCTL MICROITERATIONS CONVERGED
    YDIPLEN     YDIPLEN      freq1     freq2                Norm
 ---------------------------------------------------------------
                          0.058400  0.058400        112.34933431
  Time used in CRVEC2     is       2 hours 19 minutes 47 seconds


 ----- CALCULATING CONTRIBUTIONS TO SECOND HYPERPOLARIZABILITY -----


   Contribution                Term         Accumulated
 ------------------------------------------------------
 Na T[4] Nb Nc Nd    -9250.34300513      -9250.34300513
 Na T[3] Nx Nyz      13497.95323383       4247.61022870
 Na X[3] Ny Nz       22061.29494213      26308.90517083
 Nx A[3] Ny Nz        7353.76498071      33662.67015154
 Na X[2] Nyz        -38391.92422845      -4729.25407690
 Nx A[2] Nyz        -38046.68767935     -42775.94175625

@ Cubic response function value in a.u. for
@ A operator, symmetry, frequency:   ZDIPLEN    1 -0.058400
@ B operator, symmetry, frequency:   ZDIPLEN    1  0.058400
@ C operator, symmetry, frequency:   ZDIPLEN    1 -0.058400
@ D operator, symmetry, frequency:   ZDIPLEN    1  0.058400

@ << A; B, C, D >>  =      -42775.94175625



   Contribution                Term         Accumulated
 ------------------------------------------------------
 Na T[4] Nb Nc Nd     -695.56592227       -695.56592227
 Na T[3] Nx Nyz       4811.35648383       4115.79056156
 Na X[3] Ny Nz        4771.34099324       8887.13155480
 Nx A[3] Ny Nz         366.29745724       9253.42901205
 Na X[2] Nyz        -27712.33310980     -18458.90409775
 Nx A[2] Nyz         16255.07220216      -2203.83189559

@ Cubic response function value in a.u. for
@ A operator, symmetry, frequency:   XDIPLEN    2 -0.058400
@ B operator, symmetry, frequency:   XDIPLEN    2  0.058400
@ C operator, symmetry, frequency:   ZDIPLEN    1 -0.058400
@ D operator, symmetry, frequency:   ZDIPLEN    1  0.058400

@ << A; B, C, D >>  =       -2203.83189559



   Contribution                Term         Accumulated
 ------------------------------------------------------
 Na T[4] Nb Nc Nd     -561.40246836       -561.40246836
 Na T[3] Nx Nyz       1351.92180590        790.51933754
 Na X[3] Ny Nz         900.36223772       1690.88157526
 Nx A[3] Ny Nz         338.06296803       2028.94454329
 Na X[2] Nyz         -4806.01792698      -2777.07338370
 Nx A[2] Nyz         -6478.44718152      -9255.52056521

@ Cubic response function value in a.u. for
@ A operator, symmetry, frequency:   YDIPLEN    3 -0.058400
@ B operator, symmetry, frequency:   YDIPLEN    3  0.058400
@ C operator, symmetry, frequency:   ZDIPLEN    1 -0.058400
@ D operator, symmetry, frequency:   ZDIPLEN    1  0.058400

@ << A; B, C, D >>  =       -9255.52056521



   Contribution                Term         Accumulated
 ------------------------------------------------------
 Na T[4] Nb Nc Nd     -550.45388749       -550.45388749
 Na T[3] Nx Nyz       4439.58759989       3889.13371239
 Na X[3] Ny Nz        4232.02901214       8121.16272453
 Nx A[3] Ny Nz          -4.39607872       8116.76664581
 Na X[2] Nyz        -28629.76296872     -20512.99632291
 Nx A[2] Nyz         18962.22759681      -1550.76872610

@ Cubic response function value in a.u. for
@ A operator, symmetry, frequency:   XDIPLEN    2 -0.058400
@ B operator, symmetry, frequency:   ZDIPLEN    1  0.058400
@ C operator, symmetry, frequency:   XDIPLEN    2 -0.058400
@ D operator, symmetry, frequency:   ZDIPLEN    1  0.058400

@ << A; B, C, D >>  =       -1550.76872610



   Contribution                Term         Accumulated
 ------------------------------------------------------
 Na T[4] Nb Nc Nd     -488.02831329       -488.02831329
 Na T[3] Nx Nyz       1390.52801015        902.49969686
 Na X[3] Ny Nz         790.75266499       1693.25236185
 Nx A[3] Ny Nz         262.93606851       1956.18843036
 Na X[2] Nyz         -4772.46982272      -2816.28139236
 Nx A[2] Nyz         -6244.35097529      -9060.63236765

@ Cubic response function value in a.u. for
@ A operator, symmetry, frequency:   YDIPLEN    3 -0.058400
@ B operator, symmetry, frequency:   ZDIPLEN    1  0.058400
@ C operator, symmetry, frequency:   YDIPLEN    3 -0.058400
@ D operator, symmetry, frequency:   ZDIPLEN    1  0.058400

@ << A; B, C, D >>  =       -9060.63236765



   Contribution                Term         Accumulated
 ------------------------------------------------------
 Na T[4] Nb Nc Nd     -185.98667748       -185.98667748
 Na T[3] Nx Nyz      -9203.29754773      -9389.28422521
 Na X[3] Ny Nz        4076.17088358      -5313.11334163
 Nx A[3] Ny Nz        2773.79604396      -2539.31729768
 Na X[2] Nyz         26048.01881451      23508.70151684
 Nx A[2] Nyz        -25068.03440790      -1559.33289106

@ Cubic response function value in a.u. for
@ A operator, symmetry, frequency:   ZDIPLEN    1 -0.058400
@ B operator, symmetry, frequency:   XDIPLEN    2  0.058400
@ C operator, symmetry, frequency:   ZDIPLEN    1 -0.058400
@ D operator, symmetry, frequency:   XDIPLEN    2  0.058400

@ << A; B, C, D >>  =       -1559.33289106



   Contribution                Term         Accumulated
 ------------------------------------------------------
 Na T[4] Nb Nc Nd    -1671.81310581      -1671.81310581
 Na T[3] Nx Nyz      -8013.43862450      -9685.25173031
 Na X[3] Ny Nz       17843.83638809       8158.58465778
 Nx A[3] Ny Nz        5947.94546270      14106.53012048
 Na X[2] Nyz        -10433.86772806       3672.66239242
 Nx A[2] Nyz        -13424.43306761      -9751.77067519

@ Cubic response function value in a.u. for
@ A operator, symmetry, frequency:   XDIPLEN    2 -0.058400
@ B operator, symmetry, frequency:   XDIPLEN    2  0.058400
@ C operator, symmetry, frequency:   XDIPLEN    2 -0.058400
@ D operator, symmetry, frequency:   XDIPLEN    2  0.058400

@ << A; B, C, D >>  =       -9751.77067519



   Contribution                Term         Accumulated
 ------------------------------------------------------
 Na T[4] Nb Nc Nd     -271.93025507       -271.93025507
 Na T[3] Nx Nyz       1077.28637953        805.35612446
 Na X[3] Ny Nz         439.38309640       1244.73922086
 Nx A[3] Ny Nz          88.58708272       1333.32630358
 Na X[2] Nyz         -3236.82635859      -1903.50005501
 Nx A[2] Nyz         -4311.00903828      -6214.50909329

@ Cubic response function value in a.u. for
@ A operator, symmetry, frequency:   YDIPLEN    3 -0.058400
@ B operator, symmetry, frequency:   YDIPLEN    3  0.058400
@ C operator, symmetry, frequency:   XDIPLEN    2 -0.058400
@ D operator, symmetry, frequency:   XDIPLEN    2  0.058400

@ << A; B, C, D >>  =       -6214.50909329



   Contribution                Term         Accumulated
 ------------------------------------------------------
 Na T[4] Nb Nc Nd     -250.58590421       -250.58590421
 Na T[3] Nx Nyz       1141.08945280        890.50354859
 Na X[3] Ny Nz         387.94943045       1278.45297904
 Nx A[3] Ny Nz          58.82330602       1337.27628506
 Na X[2] Nyz         -3200.80476494      -1863.52847987
 Nx A[2] Nyz         -4169.01084786      -6032.53932773

@ Cubic response function value in a.u. for
@ A operator, symmetry, frequency:   YDIPLEN    3 -0.058400
@ B operator, symmetry, frequency:   XDIPLEN    2  0.058400
@ C operator, symmetry, frequency:   YDIPLEN    3 -0.058400
@ D operator, symmetry, frequency:   XDIPLEN    2  0.058400

@ << A; B, C, D >>  =       -6032.53932773



   Contribution                Term         Accumulated
 ------------------------------------------------------
 Na T[4] Nb Nc Nd     -444.31036630       -444.31036630
 Na T[3] Nx Nyz       1445.66244424       1001.35207794
 Na X[3] Ny Nz         710.58216050       1711.93423844
 Nx A[3] Ny Nz         237.50887332       1949.44311175
 Na X[2] Nyz         -6166.36064866      -4216.91753690
 Nx A[2] Nyz         -4842.16660088      -9059.08413778

@ Cubic response function value in a.u. for
@ A operator, symmetry, frequency:   ZDIPLEN    1 -0.058400
@ B operator, symmetry, frequency:   YDIPLEN    3  0.058400
@ C operator, symmetry, frequency:   ZDIPLEN    1 -0.058400
@ D operator, symmetry, frequency:   YDIPLEN    3  0.058400

@ << A; B, C, D >>  =       -9059.08413778



   Contribution                Term         Accumulated
 ------------------------------------------------------
 Na T[4] Nb Nc Nd     -180.97829668       -180.97829668
 Na T[3] Nx Nyz       1100.61822480        919.63992812
 Na X[3] Ny Nz         166.40193958       1086.04186770
 Nx A[3] Ny Nz         125.96048399       1212.00235169
 Na X[2] Nyz         -4125.95037606      -2913.94802437
 Nx A[2] Nyz         -3118.74330665      -6032.69133102

@ Cubic response function value in a.u. for
@ A operator, symmetry, frequency:   XDIPLEN    2 -0.058400
@ B operator, symmetry, frequency:   YDIPLEN    3  0.058400
@ C operator, symmetry, frequency:   XDIPLEN    2 -0.058400
@ D operator, symmetry, frequency:   YDIPLEN    3  0.058400

@ << A; B, C, D >>  =       -6032.69133102



   Contribution                Term         Accumulated
 ------------------------------------------------------
 Na T[4] Nb Nc Nd     -459.29933844       -459.29933844
 Na T[3] Nx Nyz       2728.75825736       2269.45891892
 Na X[3] Ny Nz        1525.57022004       3795.02913895
 Nx A[3] Ny Nz         508.52340668       4303.55254563
 Na X[2] Nyz         -8452.49623298      -4148.94368735
 Nx A[2] Nyz         -8441.66528980     -12590.60897715

@ Cubic response function value in a.u. for
@ A operator, symmetry, frequency:   YDIPLEN    3 -0.058400
@ B operator, symmetry, frequency:   YDIPLEN    3  0.058400
@ C operator, symmetry, frequency:   YDIPLEN    3 -0.058400
@ D operator, symmetry, frequency:   YDIPLEN    3  0.058400

@ << A; B, C, D >>  =      -12590.60897715



  Summary of gamma values for a set of frequencies
 -------------------------------------------------

@ B-freq:  0.058400
@ C-freq: -0.058400
@ D-freq:  0.058400

@ gamma(X;X,X,X)       9751.7707
@ gamma(X;X,Y,Y)       6214.5091
@ gamma(X;Y,Y,X)       6214.5091
@ gamma(X;Y,X,Y)       6032.6913
@ gamma(X;X,Z,Z)       2203.8319
@ gamma(X;Z,Z,X)       2203.8319
@ gamma(X;Z,X,Z)       1550.7687
@ gamma(Y;Y,X,X)       6214.5091
@ gamma(Y;X,X,Y)       6214.5091
@ gamma(Y;X,Y,X)       6032.5393
@ gamma(Y;Y,Y,Y)      12590.6090
@ gamma(Y;Y,Z,Z)       9255.5206
@ gamma(Y;Z,Z,Y)       9255.5206
@ gamma(Y;Z,Y,Z)       9060.6324
@ gamma(Z;Z,X,X)       2203.8319
@ gamma(Z;X,X,Z)       2203.8319
@ gamma(Z;X,Z,X)       1559.3329
@ gamma(Z;Z,Y,Y)       9255.5206
@ gamma(Z;Y,Y,Z)       9255.5206
@ gamma(Z;Y,Z,Y)       9059.0841
@ gamma(Z;Z,Z,Z)      42775.9418

@ Averaged gamma parallel to the applied field is     19956.363948

  Total CPU  time used in RESPONSE:   7 hours 16 minutes 24 seconds
  Total wall time used in RESPONSE:   7 hours 16 minutes 31 seconds


                   .-------------------------------------------.
                   | End of Dynamic Property Section (RESPONS) |
                   `-------------------------------------------'

  Total CPU  time used in DALTON:   8 hours 10 minutes  6 seconds
  Total wall time used in DALTON:   8 hours 10 minutes 15 seconds

 
     Date and time (Linux)  : Sun Dec 15 11:51:36 2019
     Host name              : Lab2-333-NPs                            
