

     ************************************************************************
     *************** Dalton - An Electronic Structure Program ***************
     ************************************************************************

    This is output from DALTON release Dalton2018.1 (2019)
         ( Web site: http://daltonprogram.org )

   ----------------------------------------------------------------------------

    NOTE:
     
    Dalton is an experimental code for the evaluation of molecular
    properties using (MC)SCF, DFT, CI, and CC wave functions.
    The authors accept no responsibility for the performance of
    the code or for the correctness of the results.
     
    The code (in whole or part) is provided under a licence and
    is not to be reproduced for further distribution without
    the written permission of the authors or their representatives.
     
    See the home page "http://daltonprogram.org" for further information.
     
    If results obtained with this code are published,
    the appropriate citations would be both of:
     
       K. Aidas, C. Angeli, K. L. Bak, V. Bakken, R. Bast,
       L. Boman, O. Christiansen, R. Cimiraglia, S. Coriani,
       P. Dahle, E. K. Dalskov, U. Ekstroem,
       T. Enevoldsen, J. J. Eriksen, P. Ettenhuber, B. Fernandez,
       L. Ferrighi, H. Fliegl, L. Frediani, K. Hald, A. Halkier,
       C. Haettig, H. Heiberg, T. Helgaker, A. C. Hennum,
       H. Hettema, E. Hjertenaes, S. Hoest, I.-M. Hoeyvik,
       M. F. Iozzi, B. Jansik, H. J. Aa. Jensen, D. Jonsson,
       P. Joergensen, J. Kauczor, S. Kirpekar,
       T. Kjaergaard, W. Klopper, S. Knecht, R. Kobayashi, H. Koch,
       J. Kongsted, A. Krapp, K. Kristensen, A. Ligabue,
       O. B. Lutnaes, J. I. Melo, K. V. Mikkelsen, R. H. Myhre,
       C. Neiss, C. B. Nielsen, P. Norman, J. Olsen,
       J. M. H. Olsen, A. Osted, M. J. Packer, F. Pawlowski,
       T. B. Pedersen, P. F. Provasi, S. Reine, Z. Rinkevicius,
       T. A. Ruden, K. Ruud, V. Rybkin, P. Salek, C. C. M. Samson,
       A. Sanchez de Meras, T. Saue, S. P. A. Sauer,
       B. Schimmelpfennig, K. Sneskov, A. H. Steindal,
       K. O. Sylvester-Hvid, P. R. Taylor, A. M. Teale,
       E. I. Tellgren, D. P. Tew, A. J. Thorvaldsen, L. Thoegersen,
       O. Vahtras, M. A. Watson, D. J. D. Wilson, M. Ziolkowski
       and H. Agren,
       "The Dalton quantum chemistry program system",
       WIREs Comput. Mol. Sci. 2014, 4:269–284 (doi: 10.1002/wcms.1172)
     
    and
     
       Dalton, a molecular electronic structure program,
       Release Dalton2018.1 (2019), see http://daltonprogram.org
   ----------------------------------------------------------------------------

    Authors in alphabetical order (major contribution(s) in parenthesis):

  Kestutis Aidas,           Vilnius University,           Lithuania   (QM/MM)
  Celestino Angeli,         University of Ferrara,        Italy       (NEVPT2)
  Keld L. Bak,              UNI-C,                        Denmark     (AOSOPPA, non-adiabatic coupling, magnetic properties)
  Vebjoern Bakken,          University of Oslo,           Norway      (DALTON; geometry optimizer, symmetry detection)
  Radovan Bast,             UiT The Arctic U. of Norway,  Norway      (DALTON installation and execution frameworks)
  Pablo Baudin,             University of Valencia,       Spain       (Cholesky excitation energies)
  Linus Boman,              NTNU,                         Norway      (Cholesky decomposition and subsystems)
  Ove Christiansen,         Aarhus University,            Denmark     (CC module)
  Renzo Cimiraglia,         University of Ferrara,        Italy       (NEVPT2)
  Sonia Coriani,            Technical Univ. of Denmark,   Denmark     (CC module, MCD in RESPONS)
  Janusz Cukras,            University of Trieste,        Italy       (MChD in RESPONS)
  Paal Dahle,               University of Oslo,           Norway      (Parallelization)
  Erik K. Dalskov,          UNI-C,                        Denmark     (SOPPA)
  Thomas Enevoldsen,        Univ. of Southern Denmark,    Denmark     (SOPPA)
  Janus J. Eriksen,         Aarhus University,            Denmark     (Polarizable embedding model, TDA)
  Rasmus Faber,             University of Copenhagen,     Denmark     (Vib.avg. NMR with SOPPA, parallel AO-SOPPA)
  Tobias Fahleson,          KTH Stockholm,                Sweden      (Damped cubic response)
  Berta Fernandez,          U. of Santiago de Compostela, Spain       (doublet spin, ESR in RESPONS)
  Lara Ferrighi,            Aarhus University,            Denmark     (PCM Cubic response)
  Heike Fliegl,             University of Oslo,           Norway      (CCSD(R12))
  Luca Frediani,            UiT The Arctic U. of Norway,  Norway      (PCM)
  Bin Gao,                  UiT The Arctic U. of Norway,  Norway      (Gen1Int library)
  Christof Haettig,         Ruhr-University Bochum,       Germany     (CC module)
  Kasper Hald,              Aarhus University,            Denmark     (CC module)
  Asger Halkier,            Aarhus University,            Denmark     (CC module)
  Frederik Beyer Hansen,    University of Copenhagen,     Denmark     (Parallel AO-SOPPA)
  Erik D. Hedegaard,        Univ. of Southern Denmark,    Denmark     (Polarizable embedding model, QM/MM)
  Hanne Heiberg,            University of Oslo,           Norway      (geometry analysis, selected one-electron integrals)
  Trygve Helgaker,          University of Oslo,           Norway      (DALTON; ABACUS, ERI, DFT modules, London, and much more)
  Alf Christian Hennum,     University of Oslo,           Norway      (Parity violation)
  Hinne Hettema,            University of Auckland,       New Zealand (quadratic response in RESPONS; SIRIUS supersymmetry)
  Eirik Hjertenaes,         NTNU,                         Norway      (Cholesky decomposition)
  Pi A. B. Haase,           University of Copenhagen,     Denmark     (Triplet AO-SOPPA)
  Maria Francesca Iozzi,    University of Oslo,           Norway      (RPA)
  Christoph Jacob           TU Braunschweig               Germany     (Frozen density embedding model)
  Brano Jansik              Technical Univ. of Ostrava    Czech Rep.  (DFT cubic response)
  Hans Joergen Aa. Jensen,  Univ. of Southern Denmark,    Denmark     (DALTON; SIRIUS, RESPONS, ABACUS modules, London, and much more)
  Dan Jonsson,              UiT The Arctic U. of Norway,  Norway      (cubic response in RESPONS module)
  Poul Joergensen,          Aarhus University,            Denmark     (RESPONS, ABACUS, and CC modules)
  Maciej Kaminski,          University of Warsaw,         Poland      (CPPh in RESPONS)
  Joanna Kauczor,           Linkoeping University,        Sweden      (Complex polarization propagator (CPP) module)
  Sheela Kirpekar,          Univ. of Southern Denmark,    Denmark     (Mass-velocity & Darwin integrals)
  Wim Klopper,              KIT Karlsruhe,                Germany     (R12 code in CC, SIRIUS, and ABACUS modules)
  Stefan Knecht,            ETH Zurich,                   Switzerland (Parallel CI and MCSCF)
  Rika Kobayashi,           Australian National Univ.,    Australia   (DIIS in CC, London in MCSCF)
  Henrik Koch,              NTNU,                         Norway      (CC module, Cholesky decomposition)
  Jacob Kongsted,           Univ. of Southern Denmark,    Denmark     (Polarizable embedding model, QM/MM)
  Andrea Ligabue,           University of Modena,         Italy       (CTOCD, AOSOPPA)
  Nanna H. List             Univ. of Southern Denmark,    Denmark     (Polarizable embedding model)
  Ola B. Lutnaes,           University of Oslo,           Norway      (DFT Hessian)
  Juan I. Melo,             University of Buenos Aires,   Argentina   (LRESC, Relativistic Effects on NMR Shieldings)
  Kurt V. Mikkelsen,        University of Copenhagen,     Denmark     (MC-SCRF and QM/MM)
  Rolf H. Myhre,            NTNU,                         Norway      (Subsystems and CC3)
  Christian Neiss,          Univ. Erlangen-Nuernberg,     Germany     (CCSD(R12))
  Christian B. Nielsen,     University of Copenhagen,     Denmark     (QM/MM)
  Patrick Norman,           KTH Stockholm,                Sweden      (Cubic response and complex frequency response in RESPONS)
  Jeppe Olsen,              Aarhus University,            Denmark     (SIRIUS CI/density modules)
  Jogvan Magnus H. Olsen,   Univ. of Southern Denmark,    Denmark     (Polarizable embedding model, QM/MM)
  Anders Osted,             Copenhagen University,        Denmark     (QM/MM)
  Martin J. Packer,         University of Sheffield,      UK          (SOPPA)
  Filip Pawlowski,          Kazimierz Wielki University,  Poland      (CC3)
  Morten N. Pedersen,       Univ. of Southern Denmark,    Denmark     (Polarizable embedding model)
  Thomas B. Pedersen,       University of Oslo,           Norway      (Cholesky decomposition)
  Patricio F. Provasi,      University of Northeastern,   Argentina   (Analysis of coupling constants in localized orbitals)
  Zilvinas Rinkevicius,     KTH Stockholm,                Sweden      (open-shell DFT, ESR)
  Elias Rudberg,            KTH Stockholm,                Sweden      (DFT grid and basis info)
  Torgeir A. Ruden,         University of Oslo,           Norway      (Numerical derivatives in ABACUS)
  Kenneth Ruud,             UiT The Arctic U. of Norway,  Norway      (DALTON; ABACUS magnetic properties and much more)
  Pawel Salek,              KTH Stockholm,                Sweden      (DALTON; DFT code)
  Claire C. M. Samson       University of Karlsruhe       Germany     (Boys localization, r12 integrals in ERI)
  Alfredo Sanchez de Meras, University of Valencia,       Spain       (CC module, Cholesky decomposition)
  Trond Saue,               Paul Sabatier University,     France      (direct Fock matrix construction)
  Stephan P. A. Sauer,      University of Copenhagen,     Denmark     (SOPPA(CCSD), SOPPA prop., AOSOPPA, vibrational g-factors)
  Andre S. P. Gomes,        CNRS/Universite de Lille,     France      (Frozen density embedding model)
  Bernd Schimmelpfennig,    Forschungszentrum Karlsruhe,  Germany     (AMFI module)
  Kristian Sneskov,         Aarhus University,            Denmark     (Polarizable embedding model, QM/MM)
  Arnfinn H. Steindal,      UiT The Arctic U. of Norway,  Norway      (parallel QM/MM, Polarizable embedding model)
  Casper Steinmann,         Univ. of Southern Denmark,    Denmark     (QFIT, Polarizable embedding model)
  K. O. Sylvester-Hvid,     University of Copenhagen,     Denmark     (MC-SCRF)
  Peter R. Taylor,          VLSCI/Univ. of Melbourne,     Australia   (Symmetry handling ABACUS, integral transformation)
  Andrew M. Teale,          University of Nottingham,     England     (DFT-AC, DFT-D)
  David P. Tew,             University of Bristol,        England     (CCSD(R12))
  Olav Vahtras,             KTH Stockholm,                Sweden      (triplet response, spin-orbit, ESR, TDDFT, open-shell DFT)
  Lucas Visscher,           Vrije Universiteit Amsterdam, Netherlands (Frozen density embedding model)
  David J. Wilson,          La Trobe University,          Australia   (DFT Hessian and DFT magnetizabilities)
  Hans Agren,               KTH Stockholm,                Sweden      (SIRIUS module, RESPONS, MC-SCRF solvation model)
 --------------------------------------------------------------------------------

     Date and time (Linux)  : Tue Dec 17 23:44:10 2019
     Host name              : Lab2-333-NPs                            

 * Work memory size             :  1024000000 =  7.629 gigabytes.

 * Directories for basis set searches:
   1) /home/lab333/dalton/build_2018_atlas
   2) /home/lab333/dalton/build_2018_atlas/basis


Compilation information
-----------------------

 Who compiled             | lab333
 Host                     | Lab2-333-NPs
 System                   | Linux-4.4.0-43-Microsoft
 CMake generator          | Unix Makefiles
 Processor                | x86_64
 64-bit integers          | OFF
 MPI                      | OFF
 Fortran compiler         | /usr/bin/gfortran
 Fortran compiler version | GNU Fortran (Ubuntu 7.3.0-27ubuntu1~18.04) 7.3.0
 C compiler               | /usr/bin/gcc
 C compiler version       | gcc (Ubuntu 7.3.0-27ubuntu1~18.04) 7.3.0
 C++ compiler             | /usr/bin/g++
 C++ compiler version     | g++ (Ubuntu 7.3.0-27ubuntu1~18.04) 7.3.0
 BLAS                     | /usr/lib/x86_64-linux-gnu/libf77blas.so;/usr/lib/x
                          | 86_64-linux-gnu/libcblas.so;/usr/lib/x86_64-linux-
                          | gnu/libatlas.so
 LAPACK                   | /usr/lib/x86_64-linux-gnu/libatlas.so;/usr/lib/x86
                          | _64-linux-gnu/atlas/liblapack.so
 Static linking           | OFF
 Last Git revision        | da625bf48c74028e805616daee31bc5d76b3a20d
 Git branch               | (HEAD detached at Dalton2018.1)
 Configuration time       | 2019-01-18 10:20:51.437510


   Content of the .dal input file
 ----------------------------------

**DALTON INPUT
.RUN RESPONSE
.DIRECT
**WAVE FUNCTIONS
.HF
.MP2
.MCSCF
*CONFIGURATION INPUT
.SPIN MULTIPLICITY
3
.SYMMETRY
1
.INACTIVE ORBITALS
15 10 2 0
.CAS SPACE
1 1 2 3
.ELECTRONS
10
*ORBITAL INPUT
.MOSTART
.HUCKEL
*OPTIMIZATION
.DETERMINANTS
.STATE
1
*CI VECTOR
.PLUS COMBINATIONS
**RESPONSE
*CUBIC
.DIPLEN
.BFREQ
1
0.0584
.CFREQ
1
-0.0584
.DFREQ
1
0.0584
**END OF DALTON INPUT


   Content of the .mol file
 ----------------------------

BASIS
aug-cc-pCVDZ
 nitrobenzene
 Generated by the Dalton Input File Plugin for Avogadro
Atomtypes=4 Angstrom Generators=2 X Y
Charge=6.0 Atoms=4
C        0.0000000000            0.0000000000           -0.0265759623
C       -1.2190534920            0.0000000000           -0.6979856948
C       -1.2105095870            0.0000000000           -2.0897394457
C        0.0000000000            0.0000000000           -2.7841484631
Charge=7.0 Atoms=1
N        0.0000000000            0.0000000000            1.4549291696
Charge=8.0 Atoms=1
O       0.6681994515871787            0.0            2.4813571197184965
Charge=1.0 Atoms=3
H       -2.1410602955            0.0000000000           -0.1327964319
H       -2.1492827751            0.0000000000           -2.6311811056
H        0.0000000000            0.0000000000           -3.8683953478


       *******************************************************************
       *********** Output from DALTON general input processing ***********
       *******************************************************************

 --------------------------------------------------------------------------------
   Overall default print level:    0
   Print level for DALTON.STAT:    1

    AO-direct calculation (in sections where implemented)
    HERMIT 1- and 2-electron integral sections will be executed
    "Old" integral transformation used (limited to max 255 basis functions)
    Wave function sections will be executed (SIRIUS module)
    Dynamic molecular response properties section will be executed (RESPONSE module)
 --------------------------------------------------------------------------------


   ****************************************************************************
   *************** Output of molecule and basis set information ***************
   ****************************************************************************


    The two title cards from your ".mol" input:
    ------------------------------------------------------------------------
 1:  nitrobenzene                                                           
 2:  Generated by the Dalton Input File Plugin for Avogadro                 
    ------------------------------------------------------------------------

  Coordinates are entered in Angstrom and converted to atomic units.
          - Conversion factor : 1 bohr = 0.52917721 A

  Atomic type no.    1
  --------------------
  Nuclear charge:   6.00000
  Number of symmetry independent centers:    4
  Number of basis sets to read;    2
  Basis set file used for this atomic type with Z =   6 :
     "/home/lab333/dalton/build_2018_atlas/basis/aug-cc-pCVDZ"

  Atomic type no.    2
  --------------------
  Nuclear charge:   7.00000
  Number of symmetry independent centers:    1
  Number of basis sets to read;    2
  Basis set file used for this atomic type with Z =   7 :
     "/home/lab333/dalton/build_2018_atlas/basis/aug-cc-pCVDZ"

  Atomic type no.    3
  --------------------
  Nuclear charge:   8.00000
  Number of symmetry independent centers:    1
  Number of basis sets to read;    2
  Basis set file used for this atomic type with Z =   8 :
     "/home/lab333/dalton/build_2018_atlas/basis/aug-cc-pCVDZ"

  Atomic type no.    4
  --------------------
  Nuclear charge:   1.00000
  Number of symmetry independent centers:    3
  Number of basis sets to read;    2
  Basis set file used for this atomic type with Z =   1 :
     "/home/lab333/dalton/build_2018_atlas/basis/aug-cc-pCVDZ"


                         SYMGRP: Point group information
                         -------------------------------

@    Point group: C2v

@  * The irrep name for each symmetry:    1: A1     2: B1     3: B2     4: A2 

   * The point group was generated by:

      Reflection in the yz-plane
      Reflection in the xz-plane

   * Group multiplication table

        |  E   C2z  Oxz  Oyz
   -----+--------------------
     E  |  E   C2z  Oxz  Oyz
    C2z | C2z   E   Oyz  Oxz
    Oxz | Oxz  Oyz   E   C2z
    Oyz | Oyz  Oxz  C2z   E 

   * Character table

        |  E   C2z  Oxz  Oyz
   -----+--------------------
    A1  |   1    1    1    1
    B1  |   1   -1    1   -1
    B2  |   1   -1   -1    1
    A2  |   1    1   -1   -1

   * Direct product table

        | A1   B1   B2   A2 
   -----+--------------------
    A1  | A1   B1   B2   A2 
    B1  | B1   A1   A2   B2 
    B2  | B2   A2   A1   B1 
    A2  | A2   B2   B1   A1 


                                 Isotopic Masses
                                 ---------------

                           C          12.000000
                           C   _1     12.000000
                           C   _2     12.000000
                           C   _1     12.000000
                           C   _2     12.000000
                           C          12.000000
                           N          14.003074
                           O   _1     15.994915
                           O   _2     15.994915
                           H   _1      1.007825
                           H   _2      1.007825
                           H   _1      1.007825
                           H   _2      1.007825
                           H           1.007825

                       Total mass:   123.032029 amu
                       Natural abundance:  92.716 %

 Center-of-mass coordinates (a.u.):    0.000000    0.000000   -0.159007


  Atoms and basis sets
  --------------------

  Number of atom types :    4
  Total number of atoms:   14

  Basis set used is "aug-cc-pCVDZ" from the basis set library.

  label    atoms   charge   prim   cont     basis
  ----------------------------------------------------------------------
  C           6    6.0000    39    27      [11s6p2d|5s4p2d]                                   
  N           1    7.0000    39    27      [11s6p2d|5s4p2d]                                   
  O           2    8.0000    39    27      [11s6p2d|5s4p2d]                                   
  H           5    1.0000    11     9      [5s2p|3s2p]                                        
  ----------------------------------------------------------------------
  total:     14   64.0000   406   288
  ----------------------------------------------------------------------
  Spherical harmonic basis used.

  Threshold for neglecting AO integrals:  1.00D-12


  Symmetry Coordinates
  --------------------

  Number of coordinates in each symmetry:    14   14    9    5


   Interatomic separations (in Angstrom):
   --------------------------------------

            C           C   _1      C   _2      C   _1      C   _2      C     
            ------      ------      ------      ------      ------      ------
 C     :    0.000000
 C   _1:    1.391719    0.000000
 C   _2:    1.391719    2.438107    0.000000
 C   _1:    2.392065    1.391780    2.799956    0.000000
 C   _2:    2.392065    2.799956    1.391780    2.421019    0.000000
 C     :    2.757573    2.416230    2.416230    1.395542    1.395542    0.000000
 N     :    1.481505    2.474093    2.474093    3.745665    3.745665    4.239078
 O   _1:    2.595423    3.697289    3.226711    4.942112    4.603154    5.307734
 O   _2:    2.595423    3.226711    3.697289    4.603154    4.942112    5.307734
 H   _1:    2.143694    1.081451    3.407316    2.166922    3.881063    3.407904
 H   _2:    2.143694    3.407316    1.081451    3.881063    2.166922    3.407904
 H   _1:    3.376890    2.145360    3.883675    1.083722    3.403140    2.154719
 H   _2:    3.376890    3.883675    2.145360    3.403140    1.083722    2.154719
 H     :    3.841819    3.396703    3.396703    2.151500    2.151500    1.084247

            N           O   _1      O   _2      H   _1      H   _2      H   _1
            ------      ------      ------      ------      ------      ------
 N     :    0.000000
 O   _1:    1.224763    0.000000
 O   _2:    1.224763    1.336399    0.000000
 H   _1:    2.665523    3.837413    3.000520    0.000000
 H   _2:    2.665523    3.000520    3.837413    4.282121    0.000000
 H   _1:    4.616894    5.837487    5.322749    2.498398    4.964773    0.000000
 H   _2:    4.616894    5.322749    5.837487    4.964773    2.498398    4.298566
 H     :    5.323325    6.384814    6.384814    4.305675    4.305675    2.479943

            H   _2      H     
            ------      ------
 H   _2:    0.000000
 H     :    2.479943    0.000000


  Max    interatomic separation is    6.3848 Angstrom (   12.0655 Bohr)
  between atoms   14 and    8, "H     " and "O   _1".

  Min HX interatomic separation is    1.0815 Angstrom (    2.0436 Bohr)

  Min YX interatomic separation is    1.2248 Angstrom (    2.3145 Bohr)


  Bond distances (Angstrom):
  --------------------------

                  atom 1     atom 2       distance
                  ------     ------       --------
  bond distance:  C   _1     C            1.391719
  bond distance:  C   _2     C            1.391719
  bond distance:  C   _1     C   _1       1.391780
  bond distance:  C   _2     C   _2       1.391780
  bond distance:  C          C   _1       1.395542
  bond distance:  C          C   _2       1.395542
  bond distance:  N          C            1.481505
  bond distance:  O   _1     N            1.224763
  bond distance:  O   _2     N            1.224763
  bond distance:  O   _2     O   _1       1.336399
  bond distance:  H   _1     C   _1       1.081451
  bond distance:  H   _2     C   _2       1.081451
  bond distance:  H   _1     C   _1       1.083722
  bond distance:  H   _2     C   _2       1.083722
  bond distance:  H          C            1.084247


  Bond angles (degrees):
  ----------------------

                  atom 1     atom 2     atom 3         angle
                  ------     ------     ------         -----
  bond angle:     C   _1     C          C   _2       122.311
  bond angle:     C   _1     C          N            118.844
  bond angle:     C   _2     C          N            118.844
  bond angle:     C          C   _1     C   _1       118.493
  bond angle:     C          C   _1     H   _1       119.647
  bond angle:     C   _1     C   _1     H   _1       121.860
  bond angle:     C          C   _2     C   _2       118.493
  bond angle:     C          C   _2     H   _2       119.647
  bond angle:     C   _2     C   _2     H   _2       121.860
  bond angle:     C   _1     C   _1     C            120.192
  bond angle:     C   _1     C   _1     H   _1       119.623
  bond angle:     C          C   _1     H   _1       120.185
  bond angle:     C   _2     C   _2     C            120.192
  bond angle:     C   _2     C   _2     H   _2       119.623
  bond angle:     C          C   _2     H   _2       120.185
  bond angle:     C   _1     C          C   _2       120.319
  bond angle:     C   _1     C          H            119.841
  bond angle:     C   _2     C          H            119.841
  bond angle:     C          N          O   _1       146.936
  bond angle:     C          N          O   _2       146.936
  bond angle:     O   _1     N          O   _2        66.128
  bond angle:     N          O   _1     O   _2        56.936
  bond angle:     N          O   _2     O   _1        56.936




 Principal moments of inertia (u*A**2) and principal axes
 --------------------------------------------------------

   IA     103.668499          0.000000    0.000000    1.000000
   IB     464.335187          1.000000    0.000000    0.000000
   IC     568.003686          0.000000    1.000000    0.000000


 Rotational constants
 --------------------

@    The molecule is planar.

               A                   B                   C

           4874.9525           1088.3927            889.7460 MHz
            0.162611            0.036305            0.029679 cm-1


@  Nuclear repulsion energy :  412.588060063180 Hartree


  Symmetry Orbitals
  -----------------

  Number of orbitals in each symmetry:         115   91   48   34


  Symmetry  A1 ( 1)

    1     C        1s         1
    2     C        1s         2
    3     C        1s         3
    4     C        1s         4
    5     C        1s         5
    6     C        2pz        8
    7     C        2pz       11
    8     C        2pz       14
    9     C        2pz       17
   10     C        3d0       20
   11     C        3d2+      22
   12     C        3d0       25
   13     C        3d2+      27
   14     C        1s        28 +   29
   15     C        1s        30 +   31
   16     C        1s        32 +   33
   17     C        1s        34 +   35
   18     C        1s        36 +   37
   19     C        2px       38 -   39
   20     C        2pz       42 +   43
   21     C        2px       44 -   45
   22     C        2pz       48 +   49
   23     C        2px       50 -   51
   24     C        2pz       54 +   55
   25     C        2px       56 -   57
   26     C        2pz       60 +   61
   27     C        3d0       66 +   67
   28     C        3d1+      68 -   69
   29     C        3d2+      70 +   71
   30     C        3d0       76 +   77
   31     C        3d1+      78 -   79
   32     C        3d2+      80 +   81
   33     C        1s        82 +   83
   34     C        1s        84 +   85
   35     C        1s        86 +   87
   36     C        1s        88 +   89
   37     C        1s        90 +   91
   38     C        2px       92 -   93
   39     C        2pz       96 +   97
   40     C        2px       98 -   99
   41     C        2pz      102 +  103
   42     C        2px      104 -  105
   43     C        2pz      108 +  109
   44     C        2px      110 -  111
   45     C        2pz      114 +  115
   46     C        3d0      120 +  121
   47     C        3d1+     122 -  123
   48     C        3d2+     124 +  125
   49     C        3d0      130 +  131
   50     C        3d1+     132 -  133
   51     C        3d2+     134 +  135
   52     C        1s       136
   53     C        1s       137
   54     C        1s       138
   55     C        1s       139
   56     C        1s       140
   57     C        2pz      143
   58     C        2pz      146
   59     C        2pz      149
   60     C        2pz      152
   61     C        3d0      155
   62     C        3d2+     157
   63     C        3d0      160
   64     C        3d2+     162
   65     N        1s       163
   66     N        1s       164
   67     N        1s       165
   68     N        1s       166
   69     N        1s       167
   70     N        2pz      170
   71     N        2pz      173
   72     N        2pz      176
   73     N        2pz      179
   74     N        3d0      182
   75     N        3d2+     184
   76     N        3d0      187
   77     N        3d2+     189
   78     O        1s       190 +  191
   79     O        1s       192 +  193
   80     O        1s       194 +  195
   81     O        1s       196 +  197
   82     O        1s       198 +  199
   83     O        2px      200 -  201
   84     O        2pz      204 +  205
   85     O        2px      206 -  207
   86     O        2pz      210 +  211
   87     O        2px      212 -  213
   88     O        2pz      216 +  217
   89     O        2px      218 -  219
   90     O        2pz      222 +  223
   91     O        3d0      228 +  229
   92     O        3d1+     230 -  231
   93     O        3d2+     232 +  233
   94     O        3d0      238 +  239
   95     O        3d1+     240 -  241
   96     O        3d2+     242 +  243
   97     H        1s       244 +  245
   98     H        1s       246 +  247
   99     H        1s       248 +  249
  100     H        2px      250 -  251
  101     H        2pz      254 +  255
  102     H        2px      256 -  257
  103     H        2pz      260 +  261
  104     H        1s       262 +  263
  105     H        1s       264 +  265
  106     H        1s       266 +  267
  107     H        2px      268 -  269
  108     H        2pz      272 +  273
  109     H        2px      274 -  275
  110     H        2pz      278 +  279
  111     H        1s       280
  112     H        1s       281
  113     H        1s       282
  114     H        2pz      285
  115     H        2pz      288


  Symmetry  B1 ( 2)

  116     C        2px        6
  117     C        2px        9
  118     C        2px       12
  119     C        2px       15
  120     C        3d1+      21
  121     C        3d1+      26
  122     C        1s        28 -   29
  123     C        1s        30 -   31
  124     C        1s        32 -   33
  125     C        1s        34 -   35
  126     C        1s        36 -   37
  127     C        2px       38 +   39
  128     C        2pz       42 -   43
  129     C        2px       44 +   45
  130     C        2pz       48 -   49
  131     C        2px       50 +   51
  132     C        2pz       54 -   55
  133     C        2px       56 +   57
  134     C        2pz       60 -   61
  135     C        3d0       66 -   67
  136     C        3d1+      68 +   69
  137     C        3d2+      70 -   71
  138     C        3d0       76 -   77
  139     C        3d1+      78 +   79
  140     C        3d2+      80 -   81
  141     C        1s        82 -   83
  142     C        1s        84 -   85
  143     C        1s        86 -   87
  144     C        1s        88 -   89
  145     C        1s        90 -   91
  146     C        2px       92 +   93
  147     C        2pz       96 -   97
  148     C        2px       98 +   99
  149     C        2pz      102 -  103
  150     C        2px      104 +  105
  151     C        2pz      108 -  109
  152     C        2px      110 +  111
  153     C        2pz      114 -  115
  154     C        3d0      120 -  121
  155     C        3d1+     122 +  123
  156     C        3d2+     124 -  125
  157     C        3d0      130 -  131
  158     C        3d1+     132 +  133
  159     C        3d2+     134 -  135
  160     C        2px      141
  161     C        2px      144
  162     C        2px      147
  163     C        2px      150
  164     C        3d1+     156
  165     C        3d1+     161
  166     N        2px      168
  167     N        2px      171
  168     N        2px      174
  169     N        2px      177
  170     N        3d1+     183
  171     N        3d1+     188
  172     O        1s       190 -  191
  173     O        1s       192 -  193
  174     O        1s       194 -  195
  175     O        1s       196 -  197
  176     O        1s       198 -  199
  177     O        2px      200 +  201
  178     O        2pz      204 -  205
  179     O        2px      206 +  207
  180     O        2pz      210 -  211
  181     O        2px      212 +  213
  182     O        2pz      216 -  217
  183     O        2px      218 +  219
  184     O        2pz      222 -  223
  185     O        3d0      228 -  229
  186     O        3d1+     230 +  231
  187     O        3d2+     232 -  233
  188     O        3d0      238 -  239
  189     O        3d1+     240 +  241
  190     O        3d2+     242 -  243
  191     H        1s       244 -  245
  192     H        1s       246 -  247
  193     H        1s       248 -  249
  194     H        2px      250 +  251
  195     H        2pz      254 -  255
  196     H        2px      256 +  257
  197     H        2pz      260 -  261
  198     H        1s       262 -  263
  199     H        1s       264 -  265
  200     H        1s       266 -  267
  201     H        2px      268 +  269
  202     H        2pz      272 -  273
  203     H        2px      274 +  275
  204     H        2pz      278 -  279
  205     H        2px      283
  206     H        2px      286


  Symmetry  B2 ( 3)

  207     C        2py        7
  208     C        2py       10
  209     C        2py       13
  210     C        2py       16
  211     C        3d1-      19
  212     C        3d1-      24
  213     C        2py       40 +   41
  214     C        2py       46 +   47
  215     C        2py       52 +   53
  216     C        2py       58 +   59
  217     C        3d2-      62 -   63
  218     C        3d1-      64 +   65
  219     C        3d2-      72 -   73
  220     C        3d1-      74 +   75
  221     C        2py       94 +   95
  222     C        2py      100 +  101
  223     C        2py      106 +  107
  224     C        2py      112 +  113
  225     C        3d2-     116 -  117
  226     C        3d1-     118 +  119
  227     C        3d2-     126 -  127
  228     C        3d1-     128 +  129
  229     C        2py      142
  230     C        2py      145
  231     C        2py      148
  232     C        2py      151
  233     C        3d1-     154
  234     C        3d1-     159
  235     N        2py      169
  236     N        2py      172
  237     N        2py      175
  238     N        2py      178
  239     N        3d1-     181
  240     N        3d1-     186
  241     O        2py      202 +  203
  242     O        2py      208 +  209
  243     O        2py      214 +  215
  244     O        2py      220 +  221
  245     O        3d2-     224 -  225
  246     O        3d1-     226 +  227
  247     O        3d2-     234 -  235
  248     O        3d1-     236 +  237
  249     H        2py      252 +  253
  250     H        2py      258 +  259
  251     H        2py      270 +  271
  252     H        2py      276 +  277
  253     H        2py      284
  254     H        2py      287


  Symmetry  A2 ( 4)

  255     C        3d2-      18
  256     C        3d2-      23
  257     C        2py       40 -   41
  258     C        2py       46 -   47
  259     C        2py       52 -   53
  260     C        2py       58 -   59
  261     C        3d2-      62 +   63
  262     C        3d1-      64 -   65
  263     C        3d2-      72 +   73
  264     C        3d1-      74 -   75
  265     C        2py       94 -   95
  266     C        2py      100 -  101
  267     C        2py      106 -  107
  268     C        2py      112 -  113
  269     C        3d2-     116 +  117
  270     C        3d1-     118 -  119
  271     C        3d2-     126 +  127
  272     C        3d1-     128 -  129
  273     C        3d2-     153
  274     C        3d2-     158
  275     N        3d2-     180
  276     N        3d2-     185
  277     O        2py      202 -  203
  278     O        2py      208 -  209
  279     O        2py      214 -  215
  280     O        2py      220 -  221
  281     O        3d2-     224 +  225
  282     O        3d1-     226 -  227
  283     O        3d2-     234 +  235
  284     O        3d1-     236 -  237
  285     H        2py      252 -  253
  286     H        2py      258 -  259
  287     H        2py      270 -  271
  288     H        2py      276 -  277

  Symmetries of electric field:  B1 (2)  B2 (3)  A1 (1)

  Symmetries of magnetic field:  B2 (3)  B1 (2)  A2 (4)


                     .---------------------------------------.
                     | Starting in Integral Section (HERMIT) |
                     `---------------------------------------'



 ***************************************************************************************
 ****************** Output from **INTEGRALS input processing (HERMIT) ******************
 ***************************************************************************************


 - Using defaults, no **INTEGRALS input found

 Default print level:        1

 Calculation of one-electron Hamiltonian integrals.

 Center of mass  (bohr):      0.000000000000      0.000000000000     -0.159007472161
 Operator center (bohr):      0.000000000000      0.000000000000      0.000000000000
 Gauge origin    (bohr):      0.000000000000      0.000000000000      0.000000000000
 Dipole origin   (bohr):      0.000000000000      0.000000000000      0.000000000000


     ************************************************************************
     ************************** Output from HERINT **************************
     ************************************************************************



                      Nuclear contribution to dipole moments
                      --------------------------------------

                 au               Debye          C m (/(10**-30)

      z    -18.57067984       -47.20195691      -157.44878047


  Time used in GABGEN     is       0.11 seconds
  Total CPU  time used in HERMIT:   0.44 seconds
  Total wall time used in HERMIT:   0.44 seconds


                        .----------------------------------.
                        | End of Integral Section (HERMIT) |
                        `----------------------------------'



                   .--------------------------------------------.
                   | Starting in Wave Function Section (SIRIUS) |
                   `--------------------------------------------'


 *** Output from Huckel module :

     Using EWMO model:          F
     Using EHT  model:          T
     Number of Huckel orbitals each symmetry:   24   17    6    3

 Huckel EHT eigenvalues for symmetry :  1
          -20.713120     -15.706165     -11.414851     -11.394414     -11.376680
          -11.362579      -1.882625      -1.575862      -1.257564      -0.992373
           -0.829176      -0.728014      -0.650385      -0.620897      -0.535750
           -0.437328      -0.308953      -0.237924      -0.220421      -0.213448
           -0.205747      -0.178531      -0.166780      -0.160398

 Huckel EHT eigenvalues for symmetry :  2
          -20.695876     -11.396451     -11.377841      -1.252736      -1.174824
           -0.882706      -0.610436      -0.534171      -0.486347      -0.418830
           -0.413484      -0.325352      -0.213818      -0.202811      -0.176266
           -0.165464      -0.163301

 Huckel EHT eigenvalues for symmetry :  3
           -0.824694      -0.693567      -0.481938      -0.389783      -0.281539
           -0.236519

 Huckel EHT eigenvalues for symmetry :  4
           -0.524970      -0.460539      -0.288952

 **********************************************************************
 *SIRIUS* a direct, restricted step, second order MCSCF program       *
 **********************************************************************

 
     Date and time (Linux)  : Tue Dec 17 23:44:11 2019
     Host name              : Lab2-333-NPs                            

 Title lines from ".mol" input file:
      nitrobenzene                                                           
      Generated by the Dalton Input File Plugin for Avogadro                 

 Print level on unit LUPRI =   2 is   0
 Print level on unit LUW4  =   2 is   5

@    MC-SCF optimization.

@    Multi-configurational response calculation.
@              Type: complete active space calculation (CAS).

@    This is a combination run starting with
@              a restricted, closed shell Hartree-Fock calculation
@              an MP2 calculation

 Fock matrices are calculated directly without use of integrals on disk.

 Initial molecular orbitals are obtained according to
 ".MOSTART EHT   " input option

     Wave function specification
     ============================
@    Wave function type        --- MC-SCF ---
@    Number of closed shell electrons          54
@    Number of electrons in active shells      10
@    Total charge of the molecule               0

@    Spin multiplicity and 2 M_S                3         2
@    Total number of symmetries                 4 (point group: C2v)
@    Reference state symmetry                   1 (irrep name : A1 )

     Orbital specifications
     ======================
@    Abelian symmetry species          All |    1    2    3    4
@                                          |  A1   B1   B2   A2 
                                       --- |  ---  ---  ---  ---
@    Inactive orbitals                  27 |   15   10    2    0
@    Active orbitals                     7 |    1    1    2    3
@    Secondary orbitals                254 |   99   80   44   31
@    Total number of orbitals          288 |  115   91   48   34
@    Number of basis functions         288 |  115   91   48   34

      ** Automatic occupation of RHF orbitals **

      -- Initial occupation of symmetries is determined from extended Huckel guess.           
      -- Initial occupation of symmetries is :
@    Occupied SCF orbitals              32 |   16   11    3    2

     Optimization information
     ========================
@    Number of determinants                  56
@    Number of orbital rotations           2762
     ------------------------------------------
@    Total number of variables             2818

     Maximum number of macro iterations      25
     Maximum number of micro iterations     600
     Threshold for MCSCF gradient      1.00D-05
     Number of initial trial vectors          1
     Number of initial CI iterations          3
     Number of simultaneous trial vectors     1

@    This calculation converges to the lowest state for the specified symmetry and spin species.

     Maximum number of NEO/NR iterations  24

    INFORMATION: Switched to "new" integral transformation (from 1988 ;-) )
    because more than 255 basis functions.


 ***********************************************
 ***** DIIS acceleration of SCF iterations *****
 ***********************************************

 C1-DIIS algorithm; max error vectors =    8

 Automatic occupation of symmetries with  64 electrons.

 Iter     Total energy    Error norm  Delta(E)    SCF occupation
 -----------------------------------------------------------------------------
   1  Screening settings (-IFTHRS, JTDIIS, DIFDEN, times)   -8    1    T  2.77D+01  2.77D+01
@  1  -431.112243921       6.98D+00  -4.31D+02    16  11   3   2
      Virial theorem: -V/T =      1.988469
@    MULPOP   C       0.45; C   _1  0.28; C   _2  0.28; C   _1  0.26; C   _2  0.26; C       0.44; N       1.18; O   _1 -1.12; O   _2 -1.12; H   _1 -0.19; 
@             H   _2 -0.19; H   _1 -0.18; H   _2 -0.18; H      -0.18; 
   1  Level shift: doubly occupied orbital energies shifted by -2.00D-01
 -----------------------------------------------------------------------------
   2  Screening settings (-IFTHRS, JTDIIS, DIFDEN, times)   -8    2    T  2.79D+01  2.79D+01
@  2  -428.136537273       8.83D+00   2.98D+00    16  10   4   2
      Virial theorem: -V/T =      1.996547
@    MULPOP   C       0.46; C   _1 -0.49; C   _2 -0.49; C   _1 -0.11; C   _2 -0.11; C      -0.21; N      -0.04; O   _1  1.46; O   _2  1.46; H   _1 -0.39; 
@             H   _2 -0.39; H   _1 -0.39; H   _2 -0.39; H      -0.38; 
   2  Level shift: doubly occupied orbital energies shifted by -2.00D-01
 -----------------------------------------------------------------------------
   3  Screening settings (-IFTHRS, JTDIIS, DIFDEN, times)   -8    3    T  2.79D+01  2.79D+01
@  3  -432.918374072       3.15D+00  -4.78D+00    16  11   3   2
      Virial theorem: -V/T =      1.984691
@    MULPOP   C       1.74; C   _1  0.32; C   _2  0.32; C   _1  0.66; C   _2  0.66; C       0.75; N       0.35; O   _1 -1.17; O   _2 -1.17; H   _1 -0.51; 
@             H   _2 -0.51; H   _1 -0.47; H   _2 -0.47; H      -0.48; 
   3  Level shift: doubly occupied orbital energies shifted by -1.00D-01
 -----------------------------------------------------------------------------
   4  Screening settings (-IFTHRS, JTDIIS, DIFDEN, times)   -8    4    T  2.79D+01  2.79D+01
@  4  -433.456328516       1.19D+00  -5.38D-01    16  11   3   2
      Virial theorem: -V/T =      1.996052
@    MULPOP   C       1.49; C   _1  0.32; C   _2  0.32; C   _1  0.68; C   _2  0.68; C       0.48; N       0.75; O   _1 -1.18; O   _2 -1.18; H   _1 -0.50; 
@             H   _2 -0.50; H   _1 -0.45; H   _2 -0.45; H      -0.43; 
   4  Level shift: doubly occupied orbital energies shifted by -5.00D-02
 -----------------------------------------------------------------------------
   5  Screening settings (-IFTHRS, JTDIIS, DIFDEN, times)   -8    5    T  2.78D+01  2.78D+01
@  5  -433.557249001       3.29D-01  -1.01D-01    16  11   3   2
      Virial theorem: -V/T =      1.996986
@    MULPOP   C       1.53; C   _1  0.19; C   _2  0.19; C   _1  0.76; C   _2  0.76; C       0.37; N       0.46; O   _1 -0.98; O   _2 -0.98; H   _1 -0.50; 
@             H   _2 -0.50; H   _1 -0.44; H   _2 -0.44; H      -0.42; 
   5  Level shift: doubly occupied orbital energies shifted by -2.50D-02
 -----------------------------------------------------------------------------
   6  Screening settings (-IFTHRS, JTDIIS, DIFDEN, times)   -8    6    T  2.81D+01  2.81D+01
@  6  -433.574669143       1.50D-01  -1.74D-02    16  11   3   2
      Virial theorem: -V/T =      1.996897
@    MULPOP   C       1.62; C   _1  0.12; C   _2  0.12; C   _1  0.74; C   _2  0.74; C       0.31; N       0.45; O   _1 -0.91; O   _2 -0.91; H   _1 -0.51; 
@             H   _2 -0.51; H   _1 -0.42; H   _2 -0.42; H      -0.40; 
   6  Level shift: doubly occupied orbital energies shifted by -1.25D-02
 -----------------------------------------------------------------------------
   7  Screening settings (-IFTHRS, JTDIIS, DIFDEN, times)  -10    7    F  2.82D+01  2.82D+01
@  7  -433.577512909       9.64D-02  -2.84D-03    16  11   3   2
      Virial theorem: -V/T =      1.997203
@    MULPOP   C       1.69; C   _1  0.10; C   _2  0.10; C   _1  0.73; C   _2  0.73; C       0.31; N       0.40; O   _1 -0.87; O   _2 -0.87; H   _1 -0.54; 
@             H   _2 -0.54; H   _1 -0.42; H   _2 -0.42; H      -0.41; 
   7  Level shift: doubly occupied orbital energies shifted by -1.25D-02
 -----------------------------------------------------------------------------
   8  Screening settings (-IFTHRS, JTDIIS, DIFDEN, times)  -10    8    T  2.81D+01  2.81D+01
@  8  -433.578647266       3.87D-02  -1.13D-03    16  11   3   2
      Virial theorem: -V/T =      1.997019
@    MULPOP   C       1.72; C   _1  0.10; C   _2  0.10; C   _1  0.73; C   _2  0.73; C       0.33; N       0.39; O   _1 -0.87; O   _2 -0.87; H   _1 -0.56; 
@             H   _2 -0.56; H   _1 -0.42; H   _2 -0.42; H      -0.41; 
 -----------------------------------------------------------------------------
   9  Screening settings (-IFTHRS, JTDIIS, DIFDEN, times)  -10    9    T  2.79D+01  2.79D+01
@  9  -433.579026992       1.65D-02  -3.80D-04    16  11   3   2
      Virial theorem: -V/T =      1.997010
@    MULPOP   C       1.72; C   _1  0.11; C   _2  0.11; C   _1  0.73; C   _2  0.73; C       0.34; N       0.38; O   _1 -0.86; O   _2 -0.86; H   _1 -0.57; 
@             H   _2 -0.57; H   _1 -0.41; H   _2 -0.41; H      -0.41; 
 -----------------------------------------------------------------------------
  10  Screening settings (-IFTHRS, JTDIIS, DIFDEN, times)  -13   10    F  2.84D+01  2.84D+01
@ 10  -433.579128947       1.04D-02  -1.02D-04    16  11   3   2
      Virial theorem: -V/T =      1.997020
@    MULPOP   C       1.73; C   _1  0.11; C   _2  0.11; C   _1  0.72; C   _2  0.72; C       0.35; N       0.38; O   _1 -0.86; O   _2 -0.86; H   _1 -0.58; 
@             H   _2 -0.58; H   _1 -0.41; H   _2 -0.41; H      -0.41; 
 -----------------------------------------------------------------------------
  11  Screening settings (-IFTHRS, JTDIIS, DIFDEN, times)  -13   11    T  2.81D+01  2.81D+01
@ 11  -433.579178505       5.69D-03  -4.96D-05    16  11   3   2
      Virial theorem: -V/T =      1.997010
@    MULPOP   C       1.73; C   _1  0.11; C   _2  0.11; C   _1  0.72; C   _2  0.72; C       0.35; N       0.39; O   _1 -0.87; O   _2 -0.87; H   _1 -0.58; 
@             H   _2 -0.58; H   _1 -0.41; H   _2 -0.41; H      -0.41; 
 -----------------------------------------------------------------------------
  12  Screening settings (-IFTHRS, JTDIIS, DIFDEN, times)  -13   12    T  2.82D+01  2.82D+01
@ 12  -433.579203625       2.99D-03  -2.51D-05    16  11   3   2
      Virial theorem: -V/T =      1.997011
@    MULPOP   C       1.73; C   _1  0.11; C   _2  0.11; C   _1  0.72; C   _2  0.72; C       0.35; N       0.39; O   _1 -0.87; O   _2 -0.87; H   _1 -0.58; 
@             H   _2 -0.58; H   _1 -0.41; H   _2 -0.41; H      -0.41; 
 -----------------------------------------------------------------------------
  13  Screening settings (-IFTHRS, JTDIIS, DIFDEN, times)  -13   13    T  2.82D+01  2.82D+01
@ 13  -433.579209014       1.49D-03  -5.39D-06    16  11   3   2
      Virial theorem: -V/T =      1.997014
@    MULPOP   C       1.74; C   _1  0.11; C   _2  0.11; C   _1  0.72; C   _2  0.72; C       0.35; N       0.40; O   _1 -0.87; O   _2 -0.87; H   _1 -0.58; 
@             H   _2 -0.58; H   _1 -0.41; H   _2 -0.41; H      -0.41; 
 -----------------------------------------------------------------------------
  14  Screening settings (-IFTHRS, JTDIIS, DIFDEN, times)  -13   14    T  2.81D+01  2.81D+01
@ 14  -433.579210237       8.60D-04  -1.22D-06    16  11   3   2
      Virial theorem: -V/T =      1.997012
@    MULPOP   C       1.74; C   _1  0.11; C   _2  0.11; C   _1  0.72; C   _2  0.72; C       0.35; N       0.40; O   _1 -0.87; O   _2 -0.87; H   _1 -0.58; 
@             H   _2 -0.58; H   _1 -0.41; H   _2 -0.41; H      -0.41; 
 -----------------------------------------------------------------------------
  15  Screening settings (-IFTHRS, JTDIIS, DIFDEN, times)  -13   15    T  2.81D+01  2.82D+01
@ 15  -433.579210662       5.65D-04  -4.25D-07    16  11   3   2
      Virial theorem: -V/T =      1.997011
@    MULPOP   C       1.73; C   _1  0.11; C   _2  0.11; C   _1  0.72; C   _2  0.72; C       0.35; N       0.40; O   _1 -0.87; O   _2 -0.87; H   _1 -0.58; 
@             H   _2 -0.58; H   _1 -0.41; H   _2 -0.41; H      -0.41; 
 -----------------------------------------------------------------------------
  16  Screening settings (-IFTHRS, JTDIIS, DIFDEN, times)  -13   16    T  2.82D+01  2.82D+01
@ 16  -433.579210861       2.23D-04  -1.99D-07    16  11   3   2
      Virial theorem: -V/T =      1.997010
@    MULPOP   C       1.73; C   _1  0.11; C   _2  0.11; C   _1  0.72; C   _2  0.72; C       0.35; N       0.40; O   _1 -0.87; O   _2 -0.87; H   _1 -0.58; 
@             H   _2 -0.58; H   _1 -0.41; H   _2 -0.41; H      -0.41; 
 -----------------------------------------------------------------------------
  17  Screening settings (-IFTHRS, JTDIIS, DIFDEN, times)  -13   17    T  2.81D+01  2.80D+01
@ 17  -433.579210877       1.76D-04  -1.53D-08    16  11   3   2
      Virial theorem: -V/T =      1.997009
@    MULPOP   C       1.73; C   _1  0.11; C   _2  0.11; C   _1  0.72; C   _2  0.72; C       0.35; N       0.40; O   _1 -0.87; O   _2 -0.87; H   _1 -0.58; 
@             H   _2 -0.58; H   _1 -0.41; H   _2 -0.41; H      -0.41; 
 -----------------------------------------------------------------------------
  18  Screening settings (-IFTHRS, JTDIIS, DIFDEN, times)  -13   18    T  2.80D+01  2.79D+01
@ 18  -433.579210887       6.31D-05  -1.09D-08    16  11   3   2
      Virial theorem: -V/T =      1.997009
@    MULPOP   C       1.73; C   _1  0.11; C   _2  0.11; C   _1  0.72; C   _2  0.72; C       0.35; N       0.40; O   _1 -0.87; O   _2 -0.87; H   _1 -0.58; 
@             H   _2 -0.58; H   _1 -0.41; H   _2 -0.41; H      -0.41; 
 -----------------------------------------------------------------------------
  19  Screening settings (-IFTHRS, JTDIIS, DIFDEN, times)  -13   19    T  2.80D+01  2.80D+01
@ 19  -433.579210889       2.52D-05  -1.60D-09    16  11   3   2
      Virial theorem: -V/T =      1.997009
@    MULPOP   C       1.73; C   _1  0.11; C   _2  0.11; C   _1  0.72; C   _2  0.72; C       0.35; N       0.40; O   _1 -0.87; O   _2 -0.87; H   _1 -0.58; 
@             H   _2 -0.58; H   _1 -0.41; H   _2 -0.41; H      -0.41; 
 -----------------------------------------------------------------------------
  20  Screening settings (-IFTHRS, JTDIIS, DIFDEN, times)  -13   20    T  2.79D+01  2.79D+01
@ 20  -433.579210889       1.17D-05  -1.15D-10    16  11   3   2
      Virial theorem: -V/T =      1.997009
@    MULPOP   C       1.73; C   _1  0.11; C   _2  0.11; C   _1  0.72; C   _2  0.72; C       0.35; N       0.40; O   _1 -0.87; O   _2 -0.87; H   _1 -0.58; 
@             H   _2 -0.58; H   _1 -0.41; H   _2 -0.41; H      -0.41; 
 -----------------------------------------------------------------------------
  21  Screening settings (-IFTHRS, JTDIIS, DIFDEN, times)  -13   21    T  2.79D+01  2.79D+01
@ 21  -433.579210889       3.90D-06  -2.05D-11    16  11   3   2
      Virial theorem: -V/T =      1.997009
@    MULPOP   C       1.73; C   _1  0.11; C   _2  0.11; C   _1  0.72; C   _2  0.72; C       0.35; N       0.40; O   _1 -0.87; O   _2 -0.87; H   _1 -0.58; 
@             H   _2 -0.58; H   _1 -0.41; H   _2 -0.41; H      -0.41; 
 -----------------------------------------------------------------------------
  22  Screening settings (-IFTHRS, JTDIIS, DIFDEN, times)  -13   22    T  2.80D+01  2.80D+01
@ 22  -433.579210889       1.83D-06   5.57D-12    16  11   3   2
      Virial theorem: -V/T =      1.997009
@    MULPOP   C       1.73; C   _1  0.11; C   _2  0.11; C   _1  0.72; C   _2  0.72; C       0.35; N       0.40; O   _1 -0.87; O   _2 -0.87; H   _1 -0.58; 
@             H   _2 -0.58; H   _1 -0.41; H   _2 -0.41; H      -0.41; 
 -----------------------------------------------------------------------------
  23  Screening settings (-IFTHRS, JTDIIS, DIFDEN, times)  -13   23    T  2.78D+01  2.78D+01
@ 23  -433.579210889       1.20D-06  -2.50D-12    16  11   3   2
      Virial theorem: -V/T =      1.997009
@    MULPOP   C       1.73; C   _1  0.11; C   _2  0.11; C   _1  0.72; C   _2  0.72; C       0.35; N       0.40; O   _1 -0.87; O   _2 -0.87; H   _1 -0.58; 
@             H   _2 -0.58; H   _1 -0.41; H   _2 -0.41; H      -0.41; 
 -----------------------------------------------------------------------------
  24  Screening settings (-IFTHRS, JTDIIS, DIFDEN, times)  -13   24    T  2.78D+01  2.78D+01
@ 24  -433.579210889       8.14D-07  -7.05D-12    16  11   3   2

@ *** DIIS converged in  24 iterations !
@     Converged SCF energy, gradient:   -433.579210889166    8.14D-07
    - total time used in SIRFCK :              0.00 seconds

 --- Writing SIRIFC interface file

 CPU and wall time for SCF :     673.156     673.319


 ----- Output from SIRIUS MP2 module -----

 Reference: H.J.Aa.Jensen, P.Jorgensen, H.Agren, and J.Olsen,
            J. Chem. Phys. 88, 3834 (1988); 89, 5354 (1988)

 Checking that the closed shell orbitals are canonical Hartree-Fock orbitals

    Number of electrons  :   64
    Closed shell orbitals:   16   11    3    2

 Generating Fock matrix

 Hartree-Fock electronic energy:        -846.167270952350
 Hartree-Fock total      energy:        -433.579210889171

 Hartree-Fock orbital energies, symmetry 1 ( A1 ),   16 occupied SCF orbitals

       -20.58035274   -15.85491768   -11.37879962   -11.32659268   -11.32098332
       -11.30414327    -1.78330232    -1.25592424    -1.16294502    -1.02780566
        -0.87397490    -0.79545291    -0.74553379    -0.68523992    -0.65328402
        -0.58638902     0.01582420     0.03819496     0.05896120     0.09626667
         0.12311094     0.12491219     0.13944642     0.15014660     0.16723146
         0.17893046     0.20070441     0.23247278     0.26043790     0.27608556
         0.30250846     0.32437661     0.32546148     0.34806478     0.35787381
         0.38124657     0.39596648     0.40059240     0.42826535     0.46619039
         0.51776293     0.53764896     0.54773971     0.59759754     0.59864726
         0.63738401     0.64418544     0.66615852     0.69930720     0.72738787
         0.76454065     0.82139148     0.86712309     0.89277795     0.92224478
         0.94985086     0.97566505     1.04528349     1.08368815     1.14542571
         1.21722334     1.30758956     1.33303092     1.37983500     1.46983157
         1.49888251     1.51240694     1.55099095     1.56630418     1.58878837
         1.68633142     1.70154548     1.71846953     1.75519353     1.82695368
         1.91594917     1.94511584     1.98849005     1.99769510     2.17167753
         2.19431297     2.25047301     2.34391877     2.37889218     2.40468772
         2.49373620     2.54494454     2.63305334     2.70150982     2.79243798
         2.86970498     2.92238044     3.01372919     3.10818676     3.23275197
         3.30961596     3.54208199     3.84184461     3.99308825     4.16575154
        19.77031739    20.28109163    20.42030359    20.58481164    23.31823630
        23.38357635    23.44034962    23.75844287    23.85766093    24.07466690
        27.18534415    31.51189502    35.85286836    39.90683578    40.21140098

 Hartree-Fock orbital energies, symmetry 2 ( B1 ),   11 occupied SCF orbitals

       -20.58032652   -11.32662800   -11.30419744    -1.21570193    -1.09052126
        -0.90284840    -0.71132668    -0.65785569    -0.63527116    -0.56398485
        -0.12211919     0.02938560     0.06312441     0.12215580     0.12623129
         0.14446461     0.17724952     0.17935278     0.21309604     0.26007657
         0.27855432     0.29586169     0.31066024     0.32951524     0.35092352
         0.37751732     0.39037518     0.41010584     0.44491788     0.54046555
         0.55686510     0.57322616     0.61029948     0.63074375     0.65969959
         0.67461706     0.73817858     0.75315977     0.80189965     0.82722433
         0.83589043     0.86628813     1.00233778     1.13575175     1.23331570
         1.29675533     1.32225505     1.36581170     1.46004712     1.47885024
         1.54392374     1.56062627     1.59501548     1.62307691     1.69345678
         1.73263569     1.74054249     1.79814553     1.83042008     1.90094074
         2.01045593     2.11624079     2.14396399     2.26970216     2.28944689
         2.35013336     2.40560183     2.47368699     2.52983555     2.70377219
         2.86937481     2.90304508     3.12030943     3.32155376     3.36196976
         3.40534057     3.88491609     4.23272491     4.53580798    20.24300061
        20.42632432    22.83023942    23.28532953    23.33724054    23.90608076
        24.08054126    24.26744970    31.20686355    35.78991431    39.69417907
        39.96486035

 Hartree-Fock orbital energies, symmetry 3 ( B2 ),    3 occupied SCF orbitals

        -0.76538401    -0.57678259    -0.42331158    -0.02042976     0.08912456
         0.09939797     0.12545873     0.17002623     0.17691778     0.23804397
         0.29358649     0.32105414     0.36398295     0.44417046     0.51783078
         0.56463759     0.63630651     0.68707128     0.75508359     0.84014554
         0.87349499     0.89146295     0.90829174     1.04148097     1.08308208
         1.13258304     1.22321462     1.43824485     1.47016874     1.57471899
         1.63918862     1.66854876     1.81686581     1.89238033     2.01735873
         2.05189205     2.12983041     2.25917102     2.52305176     2.64529548
         3.44956362     3.89779009    22.51067332    22.66057455    22.79041743
        22.98737656    30.55742106    39.52377131

 Hartree-Fock orbital energies, symmetry 4 ( A2 ),    2 occupied SCF orbitals

        -0.40165996    -0.38434274     0.06007318     0.11873773     0.17485007
         0.30452165     0.39655417     0.47710527     0.51459136     0.62342677
         0.71249525     0.86021751     0.87430016     0.90645782     1.01493879
         1.04866780     1.19213100     1.30828867     1.41150857     1.56414619
         1.64209498     1.65809018     1.84130745     1.93374973     2.07872656
         2.14484215     2.31816921     2.46711445     2.57197708     3.84406561
         3.90824311    22.65612563    22.82271051    39.48474301

    E(LUMO) :    -0.02042976   (in symmetry 3)
  - E(HOMO) :    -0.12211919   (in symmetry 2)
  --------------------------
    gap     :     0.10168943

---> (Re)generating AOTWOINT


     ************************************************************************
     ************************** Output from HERINT **************************
     ************************************************************************


 Threshold for neglecting two-electron integrals:  1.00D-12
 HERMIT - Number of two-electron integrals written:   199412644 ( 23.0% )
 HERMIT - Megabytes written:                           3044.069

  Time used in TWOINT     is      39.36 seconds

 2-el. integral transformation level 5: Total CPU and WALL times (sec)     413.031     414.818

 MP2 move   1.074523 electrons to unoccupied HF orbitals


@   Hartree-Fock total energy   :          -433.5792108892
@   + MP2 contribution          :            -1.7659787450
@   = MP2 second order energy   :          -435.3451896341

 Natural orbital occupation numbers, symmetry 1 (irrep A1 )
 Sum =    31.99352799; RHF =    32.00000000; Difference =    -0.00647201

         1.99928923     1.99907106     1.99876190     1.99875718     1.99875173
         1.99874803     1.98767885     1.98420392     1.97956748     1.97243034
         1.96830131     1.96709485     1.96247232     1.95624694     1.95518798
         1.94480358     0.04190818     0.02887859     0.02526453     0.02329290
         0.02018373     0.01851774     0.01700659     0.01593755     0.01356618
         0.01241769     0.01184575     0.00973147     0.00961757     0.00814602
         0.00757590     0.00726864     0.00609997     0.00461506     0.00319484
         0.00306200     0.00285582     0.00275302     0.00245610     0.00228504
         0.00189830     0.00168591     0.00161478     0.00145897     0.00134802
         0.00121312     0.00113775     0.00103686     0.00089210     0.00070568
         0.00064531     0.00060251     0.00056995     0.00049079     0.00045064
         0.00043311     0.00041576     0.00041010     0.00037863     0.00037195
         0.00036125     0.00034201     0.00031992     0.00031328     0.00030286
         0.00026697     0.00025684     0.00023645     0.00022407     0.00020143
         0.00019379     0.00018731     0.00018160     0.00017390     0.00017193
         0.00016925     0.00016138     0.00015826     0.00015473     0.00014096
         0.00012908     0.00012652     0.00012358     0.00011755     0.00011307
         0.00010918     0.00009213     0.00008059     0.00007064     0.00006914
         0.00005410     0.00005158     0.00004625     0.00003779     0.00003260
         0.00002686     0.00002176     0.00001970     0.00001680     0.00001188
         0.00000947     0.00000885     0.00000836     0.00000708     0.00000533
         0.00000421     0.00000257     0.00000190     0.00000145     0.00000106
         0.00000057     0.00000038     0.00000018     0.00000006    -0.00000023

 Natural orbital occupation numbers, symmetry 2 (irrep B1 )
 Sum =    21.96568895; RHF =    22.00000000; Difference =    -0.03431105

         1.99928979     1.99875762     1.99875166     1.98087897     1.98032670
         1.97407646     1.96965392     1.96056898     1.95523424     1.95452619
         1.93758260     0.05956942     0.04126074     0.02505745     0.02383157
         0.01639755     0.01581238     0.01496782     0.01306803     0.01040333
         0.00884232     0.00790897     0.00592187     0.00525426     0.00469191
         0.00327217     0.00304602     0.00254139     0.00221118     0.00208135
         0.00182216     0.00159510     0.00153746     0.00132138     0.00127297
         0.00105461     0.00096860     0.00069065     0.00063359     0.00062698
         0.00055938     0.00050547     0.00043936     0.00042327     0.00040530
         0.00036812     0.00033423     0.00032653     0.00028375     0.00026080
         0.00025697     0.00022403     0.00020833     0.00019129     0.00018863
         0.00018317     0.00017929     0.00017108     0.00016791     0.00016418
         0.00014816     0.00014470     0.00013749     0.00012894     0.00012350
         0.00011998     0.00011097     0.00010180     0.00008471     0.00007209
         0.00005911     0.00005157     0.00004014     0.00003851     0.00003069
         0.00002677     0.00002245     0.00001569     0.00001347     0.00001129
         0.00000961     0.00000607     0.00000596     0.00000455     0.00000220
         0.00000160     0.00000089     0.00000038     0.00000025    -0.00000021
        -0.02897583

 Natural orbital occupation numbers, symmetry 3 (irrep B2 )
 Sum =     6.06942424; RHF =     6.00000000; Difference =     0.06942424

         1.94875612     1.94213319     1.90615221     0.10166237     0.06471267
         0.02911050     0.01065654     0.01007335     0.00872080     0.00836309
         0.00720647     0.00588615     0.00456380     0.00417005     0.00331105
         0.00290963     0.00145623     0.00133473     0.00104250     0.00086378
         0.00082686     0.00064300     0.00061284     0.00050427     0.00046134
         0.00041225     0.00033285     0.00029771     0.00027032     0.00023786
         0.00022099     0.00019598     0.00018868     0.00017914     0.00015325
         0.00014479     0.00012169     0.00010760     0.00010458     0.00007979
         0.00007874     0.00007350     0.00003846     0.00001913     0.00001312
         0.00000975     0.00000660     0.00000388

 Natural orbital occupation numbers, symmetry 4 (irrep A2 )
 Sum =     3.97135882; RHF =     4.00000000; Difference =    -0.02864118

         1.92626891     1.90697854     0.06398191     0.02155851     0.01014505
         0.00944279     0.00723964     0.00567094     0.00388716     0.00358647
         0.00331567     0.00173179     0.00140290     0.00090672     0.00075909
         0.00071807     0.00063315     0.00055154     0.00042278     0.00037862
         0.00035959     0.00026995     0.00020478     0.00019621     0.00016599
         0.00013118     0.00011712     0.00010174     0.00007697     0.00005799
         0.00004771     0.00002835     0.00001845     0.00000252

 Time used for MP2 natural orbitals :     444.922 CPU seconds,     446.704 wall seconds.

 CPU and wall time for MP2 :     444.922     446.704


        SIRIUS MCSCF optimization (SIROPT)
 ================================================


 Fock matrix screening setting for SIRCNO: IFTHRS =    9


 ----- Output from SIRIUS CI module (CICTL) -----




 2-el. integral transformation level 0: Total CPU and WALL times (sec)      99.094      99.097


 --- SIRCI.CIST1: plus combination of all degenerate
                 configurations is used as start vectors.


 (CIST1) 8 lowest diagonal elements:

 Element no. Config.no.    Active energy      Total energy

         1 :          1    -17.9580248192   -433.3229989024
         2 :         22    -17.9397824038   -433.3047564870
         3 :         19    -17.7555262004   -433.1205002836
         4 :         28    -17.7325197745   -433.0974938578
         5 :          3    -17.7060051115   -433.0709791948
         6 :          6    -17.6982781041   -433.0632521874
         7 :         24    -17.6675147485   -433.0324888317
         8 :          2    -17.6670133407   -433.0319874239


 Convergence threshold for CI optimization :     0.00000500



 *** Reached maximum number of CI iterations:    3
              1 CI roots are not converged.


@ Final CI energies and residuals in symmetry 1 (irrep A1 )
@    1     -433.350106128126072       3.30D-03

   --- OUTPUT FROM SIRCNO     Keyword = FD+NO 


 Occupations of CAS natural orbitals:

 Symmetry  1 ( irrep A1  in C2v )

   1.999863126

 Symmetry  2 ( irrep B1  in C2v )

   1.999676180

 Symmetry  3 ( irrep B2  in C2v )

   1.961226541   0.097895161

 Symmetry  4 ( irrep A2  in C2v )

   1.941443812   1.024748418   0.975146762


 --- MACRO ITERATION  1 ---
 --------------------------

 2-el. integral transformation level 3: Total CPU and WALL times (sec)     101.375     101.411

 Fock matrix screening setting for this macro iteration: 10^( -9)

 Total MCSCF energy       :          -433.350106129867186  (MACRO    1)

 - Nuclear repulsion      :           412.588060063179910
 - Inactive energy        :          -827.953034148844381
 - Active energy          :           -17.985132044202700

 Norm of total gradient   :             0.826557878063
 -    of CI gradient      :             0.006599707558
 -    of orbital gradient :             0.826531529737
      Virial theorem: -V/T =      1.995943
@    MULPOP   C       1.98; C   _1  0.29; C   _2  0.29; C   _1  0.63; C   _2  0.63; C       0.36; N       0.19; O   _1 -0.62; O   _2 -0.62; H   _1 -0.91; 
@             H   _2 -0.91; H   _1 -0.42; H   _2 -0.42; H      -0.44; 

 Residual norm when dim(red L) =   6
 NEO root     CSF        orbital          total
    1     0.09361002     0.03525999     0.10003051 converged

 (NEONEX) NEO vector is converged.

   --- OUTPUT FROM SIRCNO     Keyword = FD+NO 


 Occupations of CAS natural orbitals:

 Symmetry  1 ( irrep A1  in C2v )

   1.999863126

 Symmetry  2 ( irrep B1  in C2v )

   1.999676180

 Symmetry  3 ( irrep B2  in C2v )

   1.961226541   0.097895161

 Symmetry  4 ( irrep A2  in C2v )

   1.941443812   1.024748418   0.975146762


 --- MACRO ITERATION  2 ---
 --------------------------

 2-el. integral transformation level 3: Total CPU and WALL times (sec)     101.141     101.144

 Fock matrix screening setting for this macro iteration: 10^( -9)

 Total MCSCF energy       :          -433.435127920168952  (MACRO    2)

 - Nuclear repulsion      :           412.588060063179910
 - Inactive energy        :          -827.431027294802789
 - Active energy          :           -18.592160688546059

 Norm of total gradient   :             0.094738135534
 -    of CI gradient      :             0.058010290172
 -    of orbital gradient :             0.074900738037
      Virial theorem: -V/T =      1.996430
@    MULPOP   C       2.08; C   _1  0.08; C   _2  0.08; C   _1  0.65; C   _2  0.65; C       0.45; N       0.28; O   _1 -0.81; O   _2 -0.81; H   _1 -0.72; 
@             H   _2 -0.72; H   _1 -0.41; H   _2 -0.41; H      -0.41; 

 (SIRNEO) iteration (  2,  9)
 Micro iteration termination criterion met, EVAL(ISTATE+1) = -1.19D-03

   --- OUTPUT FROM SIRCNO     Keyword = FD+NO 


 Occupations of CAS natural orbitals:

 Symmetry  1 ( irrep A1  in C2v )

   1.999654314

 Symmetry  2 ( irrep B1  in C2v )

   1.999046652

 Symmetry  3 ( irrep B2  in C2v )

   1.992850903   0.268270650

 Symmetry  4 ( irrep A2  in C2v )

   1.739936278   1.002581656   0.997659546


 --- MACRO ITERATION  3 ---
 --------------------------

 2-el. integral transformation level 3: Total CPU and WALL times (sec)     101.688     101.725

 Fock matrix screening setting for this macro iteration: 10^( -9)

 Total MCSCF energy       :          -433.411458874255231  (MACRO    3)

 - Nuclear repulsion      :           412.588060063179910
 - Inactive energy        :          -828.118541546763026
 - Active energy          :           -17.880977390672129

 Norm of total gradient   :             0.404940190519
 -    of CI gradient      :             0.198743784009
 -    of orbital gradient :             0.352813642332
      Virial theorem: -V/T =      1.995122
@    MULPOP   C       1.73; C   _1  0.13; C   _2  0.13; C   _1  0.57; C   _2  0.57; C       0.43; N       0.19; O   _1 -0.76; O   _2 -0.76; H   _1 -0.45; 
@             H   _2 -0.45; H   _1 -0.44; H   _2 -0.44; H      -0.43; 

 (SIRSTP) Energy difference;
 actual, predicted and ratio:   0.023669045913721  -0.023384560791377   -1.012166

 (SIRSTP) step is too large -- backstep

   --- OUTPUT FROM SIRCNO     Keyword = FD+NO 


 Occupations of CAS natural orbitals:

 Symmetry  1 ( irrep A1  in C2v )

   1.999686496

 Symmetry  2 ( irrep B1  in C2v )

   1.999261362

 Symmetry  3 ( irrep B2  in C2v )

   1.988812710   0.217900780

 Symmetry  4 ( irrep A2  in C2v )

   1.794206494   1.008283858   0.991848301


 Optimization control: Step was too large, we backstep


 --- MACRO ITERATION  3 BACKSTEP NO.  1 ---

 2-el. integral transformation level 3: Total CPU and WALL times (sec)     101.484     101.482

 Fock matrix screening setting for this macro iteration: 10^( -9)

 Total MCSCF energy       :          -433.437259299553375  (MACRO    3)

 - Nuclear repulsion      :           412.588060063179910
 - Inactive energy        :          -827.886411547608077
 - Active energy          :           -18.138907815125190

 Norm of total gradient   :             0.213032855407
 -    of CI gradient      :             0.098684631537
 -    of orbital gradient :             0.188797089441
      Virial theorem: -V/T =      1.995479
@    MULPOP   C       1.81; C   _1  0.08; C   _2  0.08; C   _1  0.60; C   _2  0.60; C       0.44; N       0.24; O   _1 -0.78; O   _2 -0.78; H   _1 -0.49; 
@             H   _2 -0.49; H   _1 -0.43; H   _2 -0.43; H      -0.43; 

 (SIRSTP) Energy difference;
 actual, predicted and ratio:  -0.002131379384423  -0.015993056753093    0.133269

 (SIRSTP) step is too large -- backstep

   --- OUTPUT FROM SIRCNO     Keyword = FD+NO 


 Occupations of CAS natural orbitals:

 Symmetry  1 ( irrep A1  in C2v )

   1.999720101

 Symmetry  2 ( irrep B1  in C2v )

   1.999417961

 Symmetry  3 ( irrep B2  in C2v )

   1.979969154   0.184040013

 Symmetry  4 ( irrep A2  in C2v )

   1.836778317   1.014487734   0.985586720


 Optimization control: Step was too large, we backstep


 --- MACRO ITERATION  3 BACKSTEP NO.  2 ---

 2-el. integral transformation level 3: Total CPU and WALL times (sec)     101.281     101.298

 Fock matrix screening setting for this macro iteration: 10^( -9)

 Total MCSCF energy       :          -433.443049223702133  (MACRO    3)

 - Nuclear repulsion      :           412.588060063179910
 - Inactive energy        :          -827.720037005051381
 - Active energy          :           -18.311072281830640

 Norm of total gradient   :             0.111650771854
 -    of CI gradient      :             0.055264959138
 -    of orbital gradient :             0.097013809053
      Virial theorem: -V/T =      1.995711
@    MULPOP   C       1.88; C   _1  0.06; C   _2  0.06; C   _1  0.62; C   _2  0.62; C       0.44; N       0.27; O   _1 -0.79; O   _2 -0.79; H   _1 -0.54; 
@             H   _2 -0.54; H   _1 -0.43; H   _2 -0.43; H      -0.42; 

 Residual norm when dim(red L) =  11
 NEO root     CSF        orbital          total
    1     0.01390675     0.00814447     0.01611614 converged

 (NEONEX) NEO vector is converged.

   --- OUTPUT FROM SIRCNO     Keyword = FD+NO 


 Occupations of CAS natural orbitals:

 Symmetry  1 ( irrep A1  in C2v )

   1.999924316

 Symmetry  2 ( irrep B1  in C2v )

   1.999697884

 Symmetry  3 ( irrep B2  in C2v )

   1.982248518   0.269676499

 Symmetry  4 ( irrep A2  in C2v )

   1.748260242   1.009016718   0.991175823


 --- MACRO ITERATION  4 ---
 --------------------------

 2-el. integral transformation level 3: Total CPU and WALL times (sec)     101.953     101.957

 Fock matrix screening setting for this macro iteration: 10^( -9)

 Total MCSCF energy       :          -433.446895566872342  (MACRO    4)

 - Nuclear repulsion      :           412.588060063179910
 - Inactive energy        :          -827.520654037148461
 - Active energy          :           -18.514301592903767

 Norm of total gradient   :             0.026318776705
 -    of CI gradient      :             0.017468677581
 -    of orbital gradient :             0.019685611771
      Virial theorem: -V/T =      1.995456
@    MULPOP   C       1.81; C   _1  0.05; C   _2  0.05; C   _1  0.62; C   _2  0.62; C       0.45; N       0.28; O   _1 -0.80; O   _2 -0.80; H   _1 -0.50; 
@             H   _2 -0.50; H   _1 -0.43; H   _2 -0.43; H      -0.42; 

 (SIRNEO) iteration (  4, 10)
 Micro iteration termination criterion met, EVAL(ISTATE+1) = -3.43D-05

   --- OUTPUT FROM SIRCNO     Keyword = FD+NO 


 Occupations of CAS natural orbitals:

 Symmetry  1 ( irrep A1  in C2v )

   1.999832471

 Symmetry  2 ( irrep B1  in C2v )

   1.999785443

 Symmetry  3 ( irrep B2  in C2v )

   1.990549708   0.304238761

 Symmetry  4 ( irrep A2  in C2v )

   1.705733880   1.002501153   0.997358584


 --- MACRO ITERATION  5 ---
 --------------------------

 2-el. integral transformation level 3: Total CPU and WALL times (sec)     101.078     101.098

 Fock matrix screening setting for this macro iteration: 10^( -9)

 Total MCSCF energy       :          -433.448161038411570  (MACRO    5)

 - Nuclear repulsion      :           412.588060063179910
 - Inactive energy        :          -826.964564102917393
 - Active energy          :           -19.071656998674101

 Norm of total gradient   :             0.029882701323
 -    of CI gradient      :             0.009420002390
 -    of orbital gradient :             0.028359114820
      Virial theorem: -V/T =      1.995345
@    MULPOP   C       1.81; C   _1  0.04; C   _2  0.04; C   _1  0.62; C   _2  0.62; C       0.45; N       0.26; O   _1 -0.78; O   _2 -0.78; H   _1 -0.50; 
@             H   _2 -0.50; H   _1 -0.43; H   _2 -0.43; H      -0.43; 

 Residual norm when dim(red L) =  16
 NEO root     CSF        orbital          total
    1     0.00353556     0.00207621     0.00410010 converged

 (NEONEX) NEO vector is converged.

   --- OUTPUT FROM SIRCNO     Keyword = FD+NO 


 Occupations of CAS natural orbitals:

 Symmetry  1 ( irrep A1  in C2v )

   1.999800147

 Symmetry  2 ( irrep B1  in C2v )

   1.999752655

 Symmetry  3 ( irrep B2  in C2v )

   1.982443768   0.235024104

 Symmetry  4 ( irrep A2  in C2v )

   1.783262116   1.000887900   0.998829311


 --- MACRO ITERATION  6 ---
 --------------------------

 2-el. integral transformation level 3: Total CPU and WALL times (sec)     101.531     101.535

 Fock matrix screening setting for this macro iteration: 10^( -9)

 Total MCSCF energy       :          -433.450203316788077  (MACRO    6)

 - Nuclear repulsion      :           412.588060063179910
 - Inactive energy        :          -825.730521173507668
 - Active energy          :           -20.307742206460329

 Norm of total gradient   :             0.026935952258
 -    of CI gradient      :             0.020632713173
 -    of orbital gradient :             0.017315792536
      Virial theorem: -V/T =      1.995446
@    MULPOP   C       1.81; C   _1  0.04; C   _2  0.04; C   _1  0.63; C   _2  0.63; C       0.45; N       0.30; O   _1 -0.80; O   _2 -0.80; H   _1 -0.51; 
@             H   _2 -0.51; H   _1 -0.43; H   _2 -0.43; H      -0.42; 

 Residual norm when dim(red L) =  11
 NEO root     CSF        orbital          total
    1     0.00411091     0.00220522     0.00466504 converged

 (NEONEX) NEO vector is converged.

   --- OUTPUT FROM SIRCNO     Keyword = FD+NO 


 Occupations of CAS natural orbitals:

 Symmetry  1 ( irrep A1  in C2v )

   1.999434172

 Symmetry  2 ( irrep B1  in C2v )

   1.999421520

 Symmetry  3 ( irrep B2  in C2v )

   1.983564600   0.228350759

 Symmetry  4 ( irrep A2  in C2v )

   1.789475727   1.000038153   0.999715069


 --- MACRO ITERATION  7 ---
[...]

    Orbital        15       16       17       18       19       20       21
   1 C   :2px    0.0428   0.0108   0.0143   0.0262   0.0524   0.0153   0.0110
   2 C   :2px    0.1743  -1.3514   3.5310  -1.4404   2.0342 -12.2592   0.4947
   4 C   :2px  -17.0515  12.5537  -8.0887   0.6250 -29.3783 142.8686   8.8988
   5 C   :3d1+  -0.0056   0.0220  -0.0076  -0.0167   0.0114   0.0150   0.0139
   6 C   :3d1+  -0.1383   1.2372  -0.6985   0.9686  -0.6315   3.4070  -0.6374
   7 C   :1s    -0.0022  -0.0081  -0.0107  -0.0155   0.0048  -0.0046  -0.0088
   8 C   :1s    -0.0177   0.0333   0.0220  -0.0190   0.0564  -0.0332  -0.0226
   9 C   :1s     0.2050  -0.6603   2.3585   0.9362  -0.6022   1.6429   1.6809
  11 C   :1s    -6.7353  28.5275  -2.8570   0.2956  -7.5524   5.8501   2.9424
  12 C   :2px    0.0062   0.0016  -0.1083  -0.0788  -0.0148   0.0064   0.0672
  13 C   :2pz   -0.0375  -0.0039   0.0607   0.0361  -0.0027   0.0077   0.0399
  14 C   :2px   -0.0533  -1.9716   1.9594  -1.0191   1.0831  -5.5077  -0.0697
  15 C   :2pz   -0.3513  -0.4623   0.6667  -2.8329   1.3501 -11.0633  -0.0993
  18 C   :2px   -1.0802   5.7045   3.1822   8.3571  -1.9035  69.4995  -1.9385
  19 C   :2pz   -6.8102  -2.7585  -8.2990  -0.2853  -7.7144 116.5056   6.4077
  20 C   :3d0   -0.0038  -0.0039  -0.0011   0.0035  -0.0063   0.0139  -0.0243
  21 C   :3d1+  -0.0101  -0.0095   0.0051  -0.0087  -0.0071  -0.0068   0.0043
  22 C   :3d2+   0.0013  -0.0038   0.0083   0.0077  -0.0019  -0.0037  -0.0130
  23 C   :3d0    0.1239   0.4301  -0.2081   1.1426  -0.2249   3.2896  -0.0540
  24 C   :3d1+   0.4132   0.2960   0.7959   0.3503   0.4970  -2.1879   0.0424
  25 C   :3d2+  -0.0781  -0.0618   0.0693  -0.5517   0.1534  -1.9284   0.1163
  26 C   :1s     0.0122   0.0127  -0.0101   0.0146   0.0108  -0.0038  -0.0524
  27 C   :1s     0.0065  -0.0395  -0.0276   0.0181   0.0263  -0.0055  -0.3258
  28 C   :1s    -0.3977  -0.8845   2.6055  -1.9223  -2.2788   0.7328   2.7578
  29 C   :1s     0.0039   0.0046  -0.0039   0.0052   0.0036  -0.0012  -0.0153
  30 C   :1s   -15.0837 -23.0836 -13.1350  -3.6752  17.5484  -5.6599  41.2492
  31 C   :2px    0.0202   0.0705  -0.0887   0.0651   0.0400  -0.0051   0.0277
  32 C   :2pz    0.0400   0.0225  -0.0531   0.0057   0.0131   0.0223  -0.0207
  33 C   :2px    0.4676   0.2117   2.5012   0.8857  -2.2925   7.0863   0.4256
  34 C   :2pz    0.0294  -0.1602  -0.6416  -2.7736   1.8053 -11.4509  -1.3522
  37 C   :2px   -1.5896  -7.6642   2.2072  -8.7923   3.3234 -69.9433   9.5377
  38 C   :2pz   -3.7330  -4.0820   1.8041   2.7780 -19.4725 119.7959  -3.8962
  39 C   :3d0    0.0061   0.0078   0.0010  -0.0067   0.0014  -0.0121  -0.0085
  40 C   :3d1+  -0.0011  -0.0043  -0.0095  -0.0087   0.0038  -0.0075  -0.0109
  41 C   :3d2+  -0.0015  -0.0028   0.0099  -0.0065  -0.0071   0.0071  -0.0326
  42 C   :3d0   -0.1408  -0.2826  -0.3083  -0.9278   0.7515  -3.6755  -0.3505
  43 C   :3d1+   0.4245   0.7199  -0.4614   0.2443   0.8138  -2.4266   0.2640
  44 C   :3d2+  -0.1174  -0.0016   0.0825   0.4706  -0.3451   2.1144   0.7686
  45 C   :2px    0.0311  -0.0240   0.0017  -0.0486   0.0044  -0.0054   0.0615
  46 C   :2px   -0.4893  -1.1122   3.3475   1.0655  -4.0147  13.7909   1.9699
  48 C   :2px   -3.5895  -6.0056  -5.2109  -1.4020  29.4633-140.4376  16.8317
  49 C   :3d1+   0.0000  -0.0036   0.0197  -0.0011  -0.0039   0.0127   0.0177
  50 C   :3d1+   0.3764   0.3388   1.2321   0.4458  -1.7181   5.0240   0.8484
  51 N   :2px   -0.0325   0.0594   0.0330  -0.0524   0.0875   0.0361   0.0859
  52 N   :2px   -0.2575   0.0207   0.2066  -0.5395   0.4196  -0.0169  -0.0038
  54 N   :2px    3.3634  -1.4786   0.7596  -2.5826  10.7023   0.2193   2.2469
  55 N   :3d1+   0.0032  -0.0113  -0.0031  -0.0095   0.0120   0.0104  -0.0168
  56 N   :3d1+  -0.2192   0.2058   0.1763  -0.1942   0.0856  -0.0323  -0.2820
  57 O   :1s    -0.0041   0.0021   0.0052  -0.0096   0.0115   0.0032  -0.0073
  58 O   :1s     0.0272  -0.0586  -0.0217  -0.0088  -0.0038   0.0028  -0.0982
  59 O   :1s     0.2178  -0.1848  -0.2145   0.2985  -0.2917  -0.0291   0.1435
  61 O   :1s     1.3102  -1.5872  -2.1948   3.9101  -8.2398  -3.4105   1.8047
  62 O   :2px    0.0236  -0.0238  -0.0276   0.0121  -0.0158   0.0054   0.0373
  63 O   :2pz   -0.0102   0.0411   0.0200   0.0260  -0.0039  -0.0333   0.0960
  64 O   :2px   -0.0279   0.0746   0.0864  -0.1739   0.3409   0.1608  -0.0584
  65 O   :2pz   -0.1501   0.1041   0.1249  -0.2124   0.1999   0.0388  -0.1132
  68 O   :2px   -1.1968   0.5592   0.5896  -0.6012   0.8850   0.6872  -1.6232
  69 O   :2pz    0.0812   0.4993   0.5778  -1.1262   2.2060   0.8106   0.6974
  73 O   :3d0    0.0322  -0.0173  -0.0122   0.0424  -0.0083  -0.0053   0.0127
  74 O   :3d1+   0.0306  -0.0232  -0.0276   0.0376  -0.0347  -0.0131   0.0124
  75 O   :3d2+  -0.0003  -0.0095  -0.0124   0.0206  -0.0703  -0.0356   0.0133
  76 H   :1s    -0.0027   0.0046   0.0369   0.0421   0.0388   0.0067  -0.0097
  77 H   :1s     1.1532  -1.3452   2.3919   2.0260   1.2665   0.4120  -1.2565
  78 H   :1s    -0.3775   6.1584   4.6198   3.4773   1.5420   1.0980  -0.8265
  81 H   :2px    0.1939  -0.2911   0.3421   0.1356   0.2521  -0.4605  -0.2561
  82 H   :2pz   -0.1011   0.2483  -0.0953  -0.3370  -0.0853  -0.9172   0.3415
  83 H   :1s    -0.0212  -0.0412   0.0213  -0.0435   0.0115  -0.0032  -0.1108
  84 H   :1s     0.4800  -0.6300   2.3755  -1.5845  -1.5674   0.3148  -4.6145
  85 H   :1s    -3.5273  -7.4474   0.5491  -3.4962  -1.3136  -0.5279   4.9636
  88 H   :2px    0.0413  -0.0525   0.3741  -0.0347  -0.2712   0.6656  -0.7948
  89 H   :2pz    0.2761   0.0099   0.1758  -0.3037   0.2133  -1.0159  -0.5483
  90 H   :2px   -0.0041   0.0018   0.0025   0.0102  -0.0020   0.0069  -0.0032
  91 H   :2px    0.3460   0.2713   0.2442  -0.1378  -0.5818   1.2307   0.4140

 Molecular orbitals for symmetry species 3  (B2 )
 ------------------------------------------------

    Orbital         1        2        3        4        5        6        7
   1 C   :2py    0.0980   0.2361  -0.5442   0.0263  -0.3070   0.2687   0.0255
   2 C   :2py   -0.0528  -0.0427   0.0379   0.0173  -0.0870   0.0785   0.0099
   4 C   :2py   -0.0142  -0.0651   0.0024   0.0069  -2.4146   0.7651  -1.9607
   5 C   :3d1-   0.0133   0.0274   0.0313   0.0203   0.0014  -0.0025   0.0030
   6 C   :3d1-  -0.0568  -0.0753   0.0377  -0.0050  -0.1337  -0.0716   0.0965
   7 C   :2py   -0.0021   0.0418  -0.4122  -0.1440   0.0297  -0.1250   0.0774
   8 C   :2py   -0.0056  -0.0749  -0.0089   0.0102  -0.0951  -0.1194   0.1212
  10 C   :2py   -0.0011  -0.0056  -0.0534  -0.0044   1.6468  -0.1481  -0.6445
  11 C   :3d2-   0.0029   0.0081  -0.0231  -0.0016  -0.0169   0.0150  -0.0027
  12 C   :3d1-   0.0053  -0.0020  -0.0126   0.0143  -0.0115   0.0158  -0.0079
  13 C   :3d2-  -0.0095  -0.0283   0.0006  -0.0068  -0.0974  -0.0385   0.0837
  14 C   :3d1-   0.0110   0.0349  -0.0046   0.0066   0.0597   0.0620  -0.0288
  15 C   :2py   -0.0909   0.1588   0.0630  -0.3560   0.0508  -0.2203   0.0268
  16 C   :2py    0.0057   0.0311   0.0297   0.0222   0.0408  -0.0604  -0.0837
  18 C   :2py    0.0029   0.0084   0.0342  -0.0071   0.1942  -0.8439   1.6910
  19 C   :3d2-  -0.0051   0.0104   0.0091  -0.0188  -0.0149   0.0123  -0.0102
  20 C   :3d1-   0.0026  -0.0038  -0.0223   0.0028   0.0114  -0.0169  -0.0001
  21 C   :3d2-  -0.0074   0.0065   0.0027  -0.0050   0.0265   0.0180  -0.0762
  22 C   :3d1-  -0.0008   0.0096   0.0014   0.0042   0.0141   0.0311   0.0041
  23 C   :2py   -0.1250   0.2487   0.2610  -0.4436  -0.2412   0.1620  -0.1883
  24 C   :2py    0.0116  -0.0114   0.0170   0.0247  -0.1806  -0.0370  -0.0330
  26 C   :2py   -0.0085   0.0230   0.0137  -0.0134  -0.4595   2.1912  -0.8562
  27 C   :3d1-  -0.0043   0.0086   0.0032  -0.0181   0.0042  -0.0147  -0.0058
  28 C   :3d1-   0.0003  -0.0099  -0.0003  -0.0069  -0.0474  -0.0622   0.0724
  29 N   :2py    0.5250   0.7288   0.2572   0.2529   0.1017  -0.1753   0.0911
  30 N   :2py   -0.0880   0.1083   0.0342   0.0722   0.0351  -0.0463   0.0063
  32 N   :2py    0.0623   0.1668   0.0742   0.0461   0.7196  -0.2224   1.3863
  33 N   :3d1-   0.0322  -0.0142   0.0137  -0.0143   0.0100  -0.0087   0.0025
  34 N   :3d1-  -0.0920  -0.0531   0.0191   0.0035  -0.0678  -0.0494   0.0881
  35 O   :2py    0.4934  -0.3562  -0.0061  -0.2968  -0.0484   0.0270   0.0444
  36 O   :2py   -0.0080  -0.0287  -0.0279  -0.0162   0.0031   0.0206   0.0058
  38 O   :2py   -0.0146  -0.0730  -0.0343  -0.0299  -0.0853   0.0893  -0.4257
  39 O   :3d2-  -0.0202   0.0048  -0.0031   0.0070   0.0016   0.0025  -0.0056
  40 O   :3d1-  -0.0130  -0.0109  -0.0055  -0.0026  -0.0018   0.0048  -0.0059
  41 O   :3d2-  -0.0201   0.0024   0.0013   0.0070  -0.0076  -0.0051   0.0100
  42 O   :3d1-  -0.0248  -0.0083  -0.0024   0.0026  -0.0131  -0.0032   0.0215
  43 H   :2py   -0.0000   0.0004  -0.0103  -0.0036   0.0093  -0.0044  -0.0016
  44 H   :2py   -0.0073  -0.0232   0.0010  -0.0034  -0.1054  -0.0472   0.0781
  46 H   :2py   -0.0062   0.0003   0.0043  -0.0036   0.0022  -0.0024  -0.0809
  47 H   :2py   -0.0030   0.0063   0.0069  -0.0111  -0.0067   0.0184   0.0012
  48 H   :2py   -0.0023  -0.0026   0.0059  -0.0054  -0.0259  -0.0774   0.0042

    Orbital         8        9       10       11       12       13       14
   1 C   :2py   -0.0619   0.3975  -0.0338   0.1866   0.4016   0.1292  -0.1764
   2 C   :2py   -0.2418   0.0112  -0.0629   0.2362   0.6159   0.4042   0.4409
   4 C   :2py   11.0994  -0.4365   3.2983   0.4260  -4.4784   5.4789  -4.6926
   5 C   :3d1-  -0.0051   0.0022  -0.0041  -0.0117   0.0146  -0.0019  -0.0189
   6 C   :3d1-   0.1910   0.0478   0.3907   0.4204  -0.4718   0.5241  -0.9881
   7 C   :2py   -0.0155  -0.1942  -0.0159  -0.0945  -0.3275   0.0039   0.2035
   8 C   :2py    0.0877   0.0391   0.1542   0.0856  -0.5559   0.2194   0.2902
  10 C   :2py   -7.9580  -1.0786  -0.3975   1.9466   3.2143  -1.6649   2.5942
  11 C   :3d2-   0.0041   0.0138   0.0044   0.0112   0.0270  -0.0008   0.0276
  12 C   :3d1-  -0.0087   0.0143  -0.0019  -0.0125  -0.0065   0.0126  -0.0312
  13 C   :3d2-   0.1690   0.0957   0.1499   0.1528  -0.3607  -0.0722  -0.7484
  14 C   :3d1-  -0.0995   0.0023  -0.0971  -0.0452   0.1618  -0.2374   0.1690
  15 C   :2py    0.0974  -0.1529  -0.0456   0.0903   0.3148  -0.0491  -0.0312
  16 C   :2py   -0.1169  -0.1117  -0.1035   0.0394   0.4964  -0.4960   0.0965
  18 C   :2py    5.7892   3.7798  -0.8165  -2.2414  -2.9010  -0.1293  -0.3012
  19 C   :3d2-  -0.0022   0.0092   0.0084  -0.0008  -0.0238  -0.0307  -0.0063
  20 C   :3d1-   0.0049  -0.0121   0.0014   0.0006  -0.0100  -0.0149   0.0314
  21 C   :3d2-  -0.2096  -0.0290  -0.0693  -0.0080   0.3247   0.0979   0.2596
  22 C   :3d1-  -0.0512  -0.1423  -0.0402   0.0140   0.1564  -0.1948  -0.1811
  23 C   :2py   -0.1864   0.3128   0.0295  -0.1360  -0.3310  -0.0462  -0.1413
  24 C   :2py    0.1715   0.1054   0.1627   0.0334  -0.6037  -0.4629  -1.1332
  26 C   :2py   -5.3895  -5.1337   0.6835   2.0268   2.9775  -0.6226  -0.7560
  27 C   :3d1-   0.0085  -0.0034   0.0035   0.0143   0.0177  -0.0428  -0.0434
  28 C   :3d1-   0.1798   0.1115   0.0572  -0.0332  -0.3192   0.1505   0.5214
  29 N   :2py    0.0225  -0.1657   0.0631   0.1438  -0.2128   0.0381   0.1072
  30 N   :2py    0.0084  -0.0783   0.1805  -0.0136   0.0090  -0.0800   0.2409
  32 N   :2py   -2.6233   0.5929  -2.2361  -5.0029   2.5578  -4.3478   2.5957
  33 N   :3d1-  -0.0007  -0.0115   0.0007  -0.0119  -0.0101  -0.0118   0.0231
  34 N   :3d1-   0.0228  -0.0174   0.2937   0.1260  -0.0854   0.1739  -0.1877
  35 O   :2py   -0.0279   0.0581   0.1260  -0.0549   0.0700   0.0267  -0.0375
  36 O   :2py   -0.0177   0.0315  -0.0042  -0.1533   0.0793  -0.0545   0.0076
  38 O   :2py    0.4125  -0.1167  -0.1940   1.7412  -0.7499   0.9295  -0.4823
  39 O   :3d2-   0.0002   0.0002  -0.0126   0.0016   0.0007  -0.0025   0.0011
  40 O   :3d1-   0.0019   0.0031  -0.0102   0.0076   0.0002   0.0027  -0.0040
  41 O   :3d2-   0.0001  -0.0015   0.0382   0.0001  -0.0009   0.0106  -0.0311
  42 O   :3d1-  -0.0058   0.0072   0.0574  -0.0094   0.0165   0.0093  -0.0078
  43 H   :2py   -0.0117  -0.0031   0.0049   0.0024  -0.0115  -0.0029   0.0090
  44 H   :2py    0.2565  -0.0420   0.0135  -0.1251  -0.5089   0.2474  -1.4694
  45 H   :2py    0.0072   0.0035  -0.0032   0.0025   0.0100  -0.0114   0.0004
  46 H   :2py   -0.1810  -0.1994  -0.1131  -0.0291   0.5047   0.7659  -0.0715
  47 H   :2py   -0.0110  -0.0034   0.0028  -0.0005  -0.0111  -0.0120  -0.0126
  48 H   :2py    0.1101   0.3050  -0.0586  -0.2655  -0.3370   1.0159   1.5744

 Molecular orbitals for symmetry species 4  (A2 )
 ------------------------------------------------

    Orbital         1        2        3        4        5        6        7
   1 C   :3d2-   0.0005   0.0042   0.0581   0.0039  -0.0009   0.0080   0.0208
   2 C   :3d2-   0.0358   0.0051  -0.0072  -0.1235  -0.1099  -0.0405  -0.7279
   3 C   :2py   -0.0033   0.0276  -0.6424   0.0878   0.1211  -0.0123  -0.1017
   4 C   :2py    0.0342  -0.0924  -0.1128   0.0224  -0.0246  -0.0656  -0.9946
   6 C   :2py    0.0052  -0.1468  -0.1723  -0.7013  -2.7561   1.6342  -0.4791
   7 C   :3d2-   0.0004   0.0001  -0.0050   0.0078   0.0019   0.0012  -0.0309
   8 C   :3d1-   0.0005  -0.0261  -0.0077  -0.0030  -0.0016  -0.0009   0.0270
   9 C   :3d2-   0.0101  -0.0064  -0.0193  -0.0340   0.0277  -0.0598  -0.0124
  10 C   :3d1-  -0.0009  -0.0038  -0.0200  -0.0469   0.0237  -0.0359  -0.4433
  11 C   :2py    0.0004   0.6347   0.0620   0.0918  -0.1226   0.0027  -0.0877
  12 C   :2py   -0.0076   0.0909   0.0981   0.0571  -0.0020   0.0123  -0.8314
  14 C   :2py   -0.0027   0.1746   0.1621  -0.8020   2.7811  -1.1509  -0.5610
  15 C   :3d2-   0.0001   0.0032   0.0007   0.0069  -0.0018   0.0009  -0.0292
  16 C   :3d1-  -0.0001  -0.0025  -0.0261   0.0029  -0.0020   0.0027  -0.0268
  17 C   :3d2-  -0.0032   0.0132   0.0077  -0.0040  -0.0337   0.0029   0.1007
  18 C   :3d1-  -0.0074  -0.0128   0.0000   0.0272   0.0315  -0.0018   0.3111
  19 C   :3d2-  -0.0003  -0.0512  -0.0098   0.0032  -0.0000   0.0021   0.0143
  20 C   :3d2-   0.0025  -0.0065  -0.0139  -0.0697   0.0819   0.0132  -0.4613
  21 N   :3d2-   0.0299   0.0008   0.0015   0.0005   0.0014   0.0070  -0.0042
  22 N   :3d2-  -0.0171   0.0069   0.0071   0.0141   0.0068  -0.0764   0.0553
  23 O   :2py    0.7440  -0.0049  -0.0182  -0.0252  -0.0461  -0.1469   0.0065
  24 O   :2py    0.0472  -0.0035  -0.0044  -0.0180  -0.0245  -0.1202  -0.0352
  26 O   :2py    0.0605  -0.0056  -0.0019   0.0607   0.0540   2.0338   0.1641
  27 O   :3d2-  -0.0014   0.0000   0.0002   0.0009   0.0018   0.0107   0.0013
  28 O   :3d1-  -0.0103  -0.0002   0.0001  -0.0001  -0.0002   0.0071  -0.0005
  29 O   :3d2-  -0.0116   0.0008   0.0011  -0.0008  -0.0018  -0.0401  -0.0077
  30 O   :3d1-  -0.0181   0.0011   0.0001   0.0030   0.0047  -0.0272   0.0228
  31 H   :2py   -0.0001  -0.0009  -0.0168  -0.0069  -0.0068   0.0040  -0.0092
  32 H   :2py   -0.0007  -0.0113  -0.0163   0.0503   0.1538  -0.0936   1.1281
  33 H   :2py   -0.0001   0.0165   0.0034  -0.0073   0.0069  -0.0011  -0.0089
  34 H   :2py   -0.0022   0.0161   0.0146   0.0659  -0.1536  -0.0037   1.0623

    Orbital         8        9       10       11       12       13
   1 C   :3d2-   0.0265   0.0279   0.0247  -0.0556   0.0086  -0.0918
   2 C   :3d2-   0.1178  -0.3366  -0.6349   0.7039   1.8116   2.1851
   3 C   :2py   -0.1572   0.0262  -0.2742   0.2979  -0.1565   0.4137
   4 C   :2py   -0.3365  -0.3976  -1.4528  -0.6095   1.9562   1.1536
   6 C   :2py   -1.7212  -0.5958  -0.3813   0.0010   0.2158  -0.3008
   7 C   :3d2-  -0.0373  -0.0064   0.0155  -0.0131  -0.0036  -0.0328
   8 C   :3d1-   0.0054  -0.0035  -0.0282  -0.0267  -0.0273   0.0166
   9 C   :3d2-   0.7750  -0.3662  -0.5538   1.0659  -1.1800   2.1205
  10 C   :3d1-  -0.2483  -0.8151   1.1466  -0.0503   1.8920   0.5239
  11 C   :2py    0.1639   0.0114   0.2008   0.3770   0.2894  -0.0925
  12 C   :2py    0.5240  -0.1048   1.7078  -0.1649   1.9809   1.9962
  14 C   :2py    1.7567   0.5019   0.4235  -0.0122  -0.0005   0.5734
  15 C   :3d2-   0.0403   0.0017  -0.0111  -0.0207  -0.0284   0.0017
  16 C   :3d1-   0.0061   0.0092  -0.0272   0.0189  -0.0213   0.0468
  17 C   :3d2-  -0.7054  -0.1462   0.2988   1.2542   1.3082  -2.0544
  18 C   :3d1-  -0.4043   0.1012   1.1729   0.2707  -0.5737  -1.4440
  19 C   :3d2-  -0.0309   0.0005  -0.0239  -0.0646  -0.0693   0.0039
  20 C   :3d2-   0.0038   0.4863   0.8159   1.0613   2.1514   1.6305
  21 N   :3d2-   0.0024   0.0030  -0.0141   0.0062   0.0140   0.0138
  22 N   :3d2-  -0.0914   0.3071  -0.2360   0.0526   0.3847  -0.2503
  23 O   :2py    0.0149  -0.0245   0.0875  -0.0385  -0.1255  -0.0248
  24 O   :2py    0.0356  -0.0857   0.0458  -0.0028  -0.0820   0.1222
  26 O   :2py   -0.0476  -0.4875   0.1329   0.1124  -0.1460   0.0328
  29 O   :3d2-  -0.0212   0.0295  -0.0331  -0.0029   0.0731  -0.0356
  30 O   :3d1-  -0.0016   0.0055   0.0467  -0.0042  -0.0910  -0.0633
  31 H   :2py   -0.0095   0.0029  -0.0135  -0.0100   0.0242   0.0131
  32 H   :2py    1.5148   0.2641  -0.5937   1.1795  -1.6227   1.0179
  33 H   :2py    0.0091   0.0024   0.0104  -0.0063   0.0191   0.0280
  34 H   :2py   -1.5935  -0.2357   0.3054   1.3212   0.3826  -2.0171

 Printout of CI-coefficients abs greater than 0.05000 for root  1
 *** NOTE: this root is the reference state ***


  Printout of coefficients in interval   0.3162E+00 to  0.1000E+01
  ==============================================================

 Coefficient of determinant        47 is     -0.98372658 -9.83726578E-01
 alpha-string:  1     3  4  5  6  7
  beta-string:  1     3  4  5


  Printout of coefficients in interval   0.1000E+00 to  0.3162E+00
  ==============================================================

 Coefficient of determinant        37 is      0.16563545  1.65635450E-01
 alpha-string:     2  3  4  5  6  7
  beta-string:     2  3  4  5


  Printout of coefficients in interval   0.5000E-01 to  0.1000E+00
  ==============================================================

 Coefficient of determinant        56 is      0.05763812  5.76381249E-02
 alpha-string:  1     3  4  5  6  7
  beta-string:  1           5  6  7

 Norm of printed part of CI vector ..      0.99847524

  Magnitude of CI coefficients
  ============================

  ( Ranges are relative to norm of vector :  1.00E+00 )

  10- 1 to 10- 0         2    0.99515308E+00    0.99515308E+00
  10- 2 to 10- 1         2    0.46169520E-02    0.99977004E+00
  10- 3 to 10- 2        11    0.22749281E-03    0.99999753E+00
  10- 4 to 10- 3         9    0.23824088E-05    0.99999991E+00
  10- 5 to 10- 4        27    0.89509144E-07    0.10000000E+01
  10- 6 to 10- 5         5    0.41715326E-10    0.10000000E+01
  Number of coefficients less than 10^-11 times norm is             0

  Total CPU  time used in SIRIUS :   3 hours 29 minutes 21 seconds
  Total wall time used in SIRIUS :   3 hours 29 minutes 25 seconds

 
     Date and time (Linux)  : Wed Dec 18 03:13:36 2019
     Host name              : Lab2-333-NPs                            

 NOTE:    2 warnings have been issued.
 Check output, result, and error files for "WARNING".


                     .---------------------------------------.
                     | End of Wave Function Section (SIRIUS) |
                     `---------------------------------------'


@ - DALTON aborted because wave function not converged!

  --- SEVERE ERROR, PROGRAM WILL BE ABORTED ---
     Date and time (Linux)  : Wed Dec 18 03:13:36 2019
     Host name              : Lab2-333-NPs                            

 Reason: DALTON aborted because wave function not converged

  Total CPU  time used in DALTON:   3 hours 29 minutes 22 seconds
  Total wall time used in DALTON:   3 hours 29 minutes 26 seconds


 QTRACE dump of internal trace stack

 ========================
      level    module
 ========================
          3    SIRIUS      
          2    DALTON      
          1    DALTON main 
 ========================

