

     ************************************************************************
     *************** Dalton - An Electronic Structure Program ***************
     ************************************************************************

    This is output from DALTON release Dalton2018.1 (2019)
         ( Web site: http://daltonprogram.org )

   ----------------------------------------------------------------------------

    NOTE:
     
    Dalton is an experimental code for the evaluation of molecular
    properties using (MC)SCF, DFT, CI, and CC wave functions.
    The authors accept no responsibility for the performance of
    the code or for the correctness of the results.
     
    The code (in whole or part) is provided under a licence and
    is not to be reproduced for further distribution without
    the written permission of the authors or their representatives.
     
    See the home page "http://daltonprogram.org" for further information.
     
    If results obtained with this code are published,
    the appropriate citations would be both of:
     
       K. Aidas, C. Angeli, K. L. Bak, V. Bakken, R. Bast,
       L. Boman, O. Christiansen, R. Cimiraglia, S. Coriani,
       P. Dahle, E. K. Dalskov, U. Ekstroem,
       T. Enevoldsen, J. J. Eriksen, P. Ettenhuber, B. Fernandez,
       L. Ferrighi, H. Fliegl, L. Frediani, K. Hald, A. Halkier,
       C. Haettig, H. Heiberg, T. Helgaker, A. C. Hennum,
       H. Hettema, E. Hjertenaes, S. Hoest, I.-M. Hoeyvik,
       M. F. Iozzi, B. Jansik, H. J. Aa. Jensen, D. Jonsson,
       P. Joergensen, J. Kauczor, S. Kirpekar,
       T. Kjaergaard, W. Klopper, S. Knecht, R. Kobayashi, H. Koch,
       J. Kongsted, A. Krapp, K. Kristensen, A. Ligabue,
       O. B. Lutnaes, J. I. Melo, K. V. Mikkelsen, R. H. Myhre,
       C. Neiss, C. B. Nielsen, P. Norman, J. Olsen,
       J. M. H. Olsen, A. Osted, M. J. Packer, F. Pawlowski,
       T. B. Pedersen, P. F. Provasi, S. Reine, Z. Rinkevicius,
       T. A. Ruden, K. Ruud, V. Rybkin, P. Salek, C. C. M. Samson,
       A. Sanchez de Meras, T. Saue, S. P. A. Sauer,
       B. Schimmelpfennig, K. Sneskov, A. H. Steindal,
       K. O. Sylvester-Hvid, P. R. Taylor, A. M. Teale,
       E. I. Tellgren, D. P. Tew, A. J. Thorvaldsen, L. Thoegersen,
       O. Vahtras, M. A. Watson, D. J. D. Wilson, M. Ziolkowski
       and H. Agren,
       "The Dalton quantum chemistry program system",
       WIREs Comput. Mol. Sci. 2014, 4:269–284 (doi: 10.1002/wcms.1172)
     
    and
     
       Dalton, a molecular electronic structure program,
       Release Dalton2018.1 (2019), see http://daltonprogram.org
   ----------------------------------------------------------------------------

    Authors in alphabetical order (major contribution(s) in parenthesis):

  Kestutis Aidas,           Vilnius University,           Lithuania   (QM/MM)
  Celestino Angeli,         University of Ferrara,        Italy       (NEVPT2)
  Keld L. Bak,              UNI-C,                        Denmark     (AOSOPPA, non-adiabatic coupling, magnetic properties)
  Vebjoern Bakken,          University of Oslo,           Norway      (DALTON; geometry optimizer, symmetry detection)
  Radovan Bast,             UiT The Arctic U. of Norway,  Norway      (DALTON installation and execution frameworks)
  Pablo Baudin,             University of Valencia,       Spain       (Cholesky excitation energies)
  Linus Boman,              NTNU,                         Norway      (Cholesky decomposition and subsystems)
  Ove Christiansen,         Aarhus University,            Denmark     (CC module)
  Renzo Cimiraglia,         University of Ferrara,        Italy       (NEVPT2)
  Sonia Coriani,            Technical Univ. of Denmark,   Denmark     (CC module, MCD in RESPONS)
  Janusz Cukras,            University of Trieste,        Italy       (MChD in RESPONS)
  Paal Dahle,               University of Oslo,           Norway      (Parallelization)
  Erik K. Dalskov,          UNI-C,                        Denmark     (SOPPA)
  Thomas Enevoldsen,        Univ. of Southern Denmark,    Denmark     (SOPPA)
  Janus J. Eriksen,         Aarhus University,            Denmark     (Polarizable embedding model, TDA)
  Rasmus Faber,             University of Copenhagen,     Denmark     (Vib.avg. NMR with SOPPA, parallel AO-SOPPA)
  Tobias Fahleson,          KTH Stockholm,                Sweden      (Damped cubic response)
  Berta Fernandez,          U. of Santiago de Compostela, Spain       (doublet spin, ESR in RESPONS)
  Lara Ferrighi,            Aarhus University,            Denmark     (PCM Cubic response)
  Heike Fliegl,             University of Oslo,           Norway      (CCSD(R12))
  Luca Frediani,            UiT The Arctic U. of Norway,  Norway      (PCM)
  Bin Gao,                  UiT The Arctic U. of Norway,  Norway      (Gen1Int library)
  Christof Haettig,         Ruhr-University Bochum,       Germany     (CC module)
  Kasper Hald,              Aarhus University,            Denmark     (CC module)
  Asger Halkier,            Aarhus University,            Denmark     (CC module)
  Frederik Beyer Hansen,    University of Copenhagen,     Denmark     (Parallel AO-SOPPA)
  Erik D. Hedegaard,        Univ. of Southern Denmark,    Denmark     (Polarizable embedding model, QM/MM)
  Hanne Heiberg,            University of Oslo,           Norway      (geometry analysis, selected one-electron integrals)
  Trygve Helgaker,          University of Oslo,           Norway      (DALTON; ABACUS, ERI, DFT modules, London, and much more)
  Alf Christian Hennum,     University of Oslo,           Norway      (Parity violation)
  Hinne Hettema,            University of Auckland,       New Zealand (quadratic response in RESPONS; SIRIUS supersymmetry)
  Eirik Hjertenaes,         NTNU,                         Norway      (Cholesky decomposition)
  Pi A. B. Haase,           University of Copenhagen,     Denmark     (Triplet AO-SOPPA)
  Maria Francesca Iozzi,    University of Oslo,           Norway      (RPA)
  Christoph Jacob           TU Braunschweig               Germany     (Frozen density embedding model)
  Brano Jansik              Technical Univ. of Ostrava    Czech Rep.  (DFT cubic response)
  Hans Joergen Aa. Jensen,  Univ. of Southern Denmark,    Denmark     (DALTON; SIRIUS, RESPONS, ABACUS modules, London, and much more)
  Dan Jonsson,              UiT The Arctic U. of Norway,  Norway      (cubic response in RESPONS module)
  Poul Joergensen,          Aarhus University,            Denmark     (RESPONS, ABACUS, and CC modules)
  Maciej Kaminski,          University of Warsaw,         Poland      (CPPh in RESPONS)
  Joanna Kauczor,           Linkoeping University,        Sweden      (Complex polarization propagator (CPP) module)
  Sheela Kirpekar,          Univ. of Southern Denmark,    Denmark     (Mass-velocity & Darwin integrals)
  Wim Klopper,              KIT Karlsruhe,                Germany     (R12 code in CC, SIRIUS, and ABACUS modules)
  Stefan Knecht,            ETH Zurich,                   Switzerland (Parallel CI and MCSCF)
  Rika Kobayashi,           Australian National Univ.,    Australia   (DIIS in CC, London in MCSCF)
  Henrik Koch,              NTNU,                         Norway      (CC module, Cholesky decomposition)
  Jacob Kongsted,           Univ. of Southern Denmark,    Denmark     (Polarizable embedding model, QM/MM)
  Andrea Ligabue,           University of Modena,         Italy       (CTOCD, AOSOPPA)
  Nanna H. List             Univ. of Southern Denmark,    Denmark     (Polarizable embedding model)
  Ola B. Lutnaes,           University of Oslo,           Norway      (DFT Hessian)
  Juan I. Melo,             University of Buenos Aires,   Argentina   (LRESC, Relativistic Effects on NMR Shieldings)
  Kurt V. Mikkelsen,        University of Copenhagen,     Denmark     (MC-SCRF and QM/MM)
  Rolf H. Myhre,            NTNU,                         Norway      (Subsystems and CC3)
  Christian Neiss,          Univ. Erlangen-Nuernberg,     Germany     (CCSD(R12))
  Christian B. Nielsen,     University of Copenhagen,     Denmark     (QM/MM)
  Patrick Norman,           KTH Stockholm,                Sweden      (Cubic response and complex frequency response in RESPONS)
  Jeppe Olsen,              Aarhus University,            Denmark     (SIRIUS CI/density modules)
  Jogvan Magnus H. Olsen,   Univ. of Southern Denmark,    Denmark     (Polarizable embedding model, QM/MM)
  Anders Osted,             Copenhagen University,        Denmark     (QM/MM)
  Martin J. Packer,         University of Sheffield,      UK          (SOPPA)
  Filip Pawlowski,          Kazimierz Wielki University,  Poland      (CC3)
  Morten N. Pedersen,       Univ. of Southern Denmark,    Denmark     (Polarizable embedding model)
  Thomas B. Pedersen,       University of Oslo,           Norway      (Cholesky decomposition)
  Patricio F. Provasi,      University of Northeastern,   Argentina   (Analysis of coupling constants in localized orbitals)
  Zilvinas Rinkevicius,     KTH Stockholm,                Sweden      (open-shell DFT, ESR)
  Elias Rudberg,            KTH Stockholm,                Sweden      (DFT grid and basis info)
  Torgeir A. Ruden,         University of Oslo,           Norway      (Numerical derivatives in ABACUS)
  Kenneth Ruud,             UiT The Arctic U. of Norway,  Norway      (DALTON; ABACUS magnetic properties and much more)
  Pawel Salek,              KTH Stockholm,                Sweden      (DALTON; DFT code)
  Claire C. M. Samson       University of Karlsruhe       Germany     (Boys localization, r12 integrals in ERI)
  Alfredo Sanchez de Meras, University of Valencia,       Spain       (CC module, Cholesky decomposition)
  Trond Saue,               Paul Sabatier University,     France      (direct Fock matrix construction)
  Stephan P. A. Sauer,      University of Copenhagen,     Denmark     (SOPPA(CCSD), SOPPA prop., AOSOPPA, vibrational g-factors)
  Andre S. P. Gomes,        CNRS/Universite de Lille,     France      (Frozen density embedding model)
  Bernd Schimmelpfennig,    Forschungszentrum Karlsruhe,  Germany     (AMFI module)
  Kristian Sneskov,         Aarhus University,            Denmark     (Polarizable embedding model, QM/MM)
  Arnfinn H. Steindal,      UiT The Arctic U. of Norway,  Norway      (parallel QM/MM, Polarizable embedding model)
  Casper Steinmann,         Univ. of Southern Denmark,    Denmark     (QFIT, Polarizable embedding model)
  K. O. Sylvester-Hvid,     University of Copenhagen,     Denmark     (MC-SCRF)
  Peter R. Taylor,          VLSCI/Univ. of Melbourne,     Australia   (Symmetry handling ABACUS, integral transformation)
  Andrew M. Teale,          University of Nottingham,     England     (DFT-AC, DFT-D)
  David P. Tew,             University of Bristol,        England     (CCSD(R12))
  Olav Vahtras,             KTH Stockholm,                Sweden      (triplet response, spin-orbit, ESR, TDDFT, open-shell DFT)
  Lucas Visscher,           Vrije Universiteit Amsterdam, Netherlands (Frozen density embedding model)
  David J. Wilson,          La Trobe University,          Australia   (DFT Hessian and DFT magnetizabilities)
  Hans Agren,               KTH Stockholm,                Sweden      (SIRIUS module, RESPONS, MC-SCRF solvation model)
 --------------------------------------------------------------------------------

     Date and time (Linux)  : Sun Dec 22 15:17:58 2019
     Host name              : Lab2-333-NPs                            

 * Work memory size             :  1024000000 =  7.629 gigabytes.

 * Directories for basis set searches:
   1) /home/lab333/dalton/build_2018_atlas
   2) /home/lab333/dalton/build_2018_atlas/basis


Compilation information
-----------------------

 Who compiled             | lab333
 Host                     | Lab2-333-NPs
 System                   | Linux-4.4.0-43-Microsoft
 CMake generator          | Unix Makefiles
 Processor                | x86_64
 64-bit integers          | OFF
 MPI                      | OFF
 Fortran compiler         | /usr/bin/gfortran
 Fortran compiler version | GNU Fortran (Ubuntu 7.3.0-27ubuntu1~18.04) 7.3.0
 C compiler               | /usr/bin/gcc
 C compiler version       | gcc (Ubuntu 7.3.0-27ubuntu1~18.04) 7.3.0
 C++ compiler             | /usr/bin/g++
 C++ compiler version     | g++ (Ubuntu 7.3.0-27ubuntu1~18.04) 7.3.0
 BLAS                     | /usr/lib/x86_64-linux-gnu/libf77blas.so;/usr/lib/x
                          | 86_64-linux-gnu/libcblas.so;/usr/lib/x86_64-linux-
                          | gnu/libatlas.so
 LAPACK                   | /usr/lib/x86_64-linux-gnu/libatlas.so;/usr/lib/x86
                          | _64-linux-gnu/atlas/liblapack.so
 Static linking           | OFF
 Last Git revision        | da625bf48c74028e805616daee31bc5d76b3a20d
 Git branch               | (HEAD detached at Dalton2018.1)
 Configuration time       | 2019-01-18 10:20:51.437510


   Content of the .dal input file
 ----------------------------------

**DALTON INPUT
.RUN RESPONSE
.DIRECT
**WAVE FUNCTIONS
.HF
.MP2
.MCSCF
*CONFIGURATION INPUT
.SPIN MULTIPLICITY
3
.SYMMETRY
1
.INACTIVE ORBITALS
15 10 2 0
.CAS SPACE
1 1 2 3
.ELECTRONS
10
*ORBITAL INPUT
.MOSTART
.HUCKEL
*OPTIMIZATION
.DETERMINANTS
.STATE
2
*CI VECTOR
.PLUS COMBINATIONS
**RESPONSE
*CUBIC
.DIPLEN
.BFREQ
1
0.0584
.CFREQ
1
-0.0584
.DFREQ
1
0.0584
**END OF DALTON INPUT


   Content of the .mol file
 ----------------------------

BASIS
aug-cc-pCVDZ
 nitrobenzene
 Generated by the Dalton Input File Plugin for Avogadro
Atomtypes=4 Angstrom Generators=2 X Y
Charge=6.0 Atoms=4
C        0.0000000000            0.0000000000           -0.0265759623
C       -1.2190534920            0.0000000000           -0.6979856948
C       -1.2105095870            0.0000000000           -2.0897394457
C        0.0000000000            0.0000000000           -2.7841484631
Charge=7.0 Atoms=1
N        0.0000000000            0.0000000000            1.4549291696
Charge=8.0 Atoms=1
O       0.6089937804374262            0.0            2.5175539478140214
Charge=1.0 Atoms=3
H       -2.1410602955            0.0000000000           -0.1327964319
H       -2.1492827751            0.0000000000           -2.6311811056
H        0.0000000000            0.0000000000           -3.8683953478


       *******************************************************************
       *********** Output from DALTON general input processing ***********
       *******************************************************************

 --------------------------------------------------------------------------------
   Overall default print level:    0
   Print level for DALTON.STAT:    1

    AO-direct calculation (in sections where implemented)
    HERMIT 1- and 2-electron integral sections will be executed
    "Old" integral transformation used (limited to max 255 basis functions)
    Wave function sections will be executed (SIRIUS module)
    Dynamic molecular response properties section will be executed (RESPONSE module)
 --------------------------------------------------------------------------------


   ****************************************************************************
   *************** Output of molecule and basis set information ***************
   ****************************************************************************


    The two title cards from your ".mol" input:
    ------------------------------------------------------------------------
 1:  nitrobenzene                                                           
 2:  Generated by the Dalton Input File Plugin for Avogadro                 
    ------------------------------------------------------------------------

  Coordinates are entered in Angstrom and converted to atomic units.
          - Conversion factor : 1 bohr = 0.52917721 A

  Atomic type no.    1
  --------------------
  Nuclear charge:   6.00000
  Number of symmetry independent centers:    4
  Number of basis sets to read;    2
  Basis set file used for this atomic type with Z =   6 :
     "/home/lab333/dalton/build_2018_atlas/basis/aug-cc-pCVDZ"

  Atomic type no.    2
  --------------------
  Nuclear charge:   7.00000
  Number of symmetry independent centers:    1
  Number of basis sets to read;    2
  Basis set file used for this atomic type with Z =   7 :
     "/home/lab333/dalton/build_2018_atlas/basis/aug-cc-pCVDZ"

  Atomic type no.    3
  --------------------
  Nuclear charge:   8.00000
  Number of symmetry independent centers:    1
  Number of basis sets to read;    2
  Basis set file used for this atomic type with Z =   8 :
     "/home/lab333/dalton/build_2018_atlas/basis/aug-cc-pCVDZ"

  Atomic type no.    4
  --------------------
  Nuclear charge:   1.00000
  Number of symmetry independent centers:    3
  Number of basis sets to read;    2
  Basis set file used for this atomic type with Z =   1 :
     "/home/lab333/dalton/build_2018_atlas/basis/aug-cc-pCVDZ"


                         SYMGRP: Point group information
                         -------------------------------

@    Point group: C2v

@  * The irrep name for each symmetry:    1: A1     2: B1     3: B2     4: A2 

   * The point group was generated by:

      Reflection in the yz-plane
      Reflection in the xz-plane

   * Group multiplication table

        |  E   C2z  Oxz  Oyz
   -----+--------------------
     E  |  E   C2z  Oxz  Oyz
    C2z | C2z   E   Oyz  Oxz
    Oxz | Oxz  Oyz   E   C2z
    Oyz | Oyz  Oxz  C2z   E 

   * Character table

        |  E   C2z  Oxz  Oyz
   -----+--------------------
    A1  |   1    1    1    1
    B1  |   1   -1    1   -1
    B2  |   1   -1   -1    1
    A2  |   1    1   -1   -1

   * Direct product table

        | A1   B1   B2   A2 
   -----+--------------------
    A1  | A1   B1   B2   A2 
    B1  | B1   A1   A2   B2 
    B2  | B2   A2   A1   B1 
    A2  | A2   B2   B1   A1 


                                 Isotopic Masses
                                 ---------------

                           C          12.000000
                           C   _1     12.000000
                           C   _2     12.000000
                           C   _1     12.000000
                           C   _2     12.000000
                           C          12.000000
                           N          14.003074
                           O   _1     15.994915
                           O   _2     15.994915
                           H   _1      1.007825
                           H   _2      1.007825
                           H   _1      1.007825
                           H   _2      1.007825
                           H           1.007825

                       Total mass:   123.032029 amu
                       Natural abundance:  92.716 %

 Center-of-mass coordinates (a.u.):    0.000000    0.000000   -0.141222


  Atoms and basis sets
  --------------------

  Number of atom types :    4
  Total number of atoms:   14

  Basis set used is "aug-cc-pCVDZ" from the basis set library.

  label    atoms   charge   prim   cont     basis
  ----------------------------------------------------------------------
  C           6    6.0000    39    27      [11s6p2d|5s4p2d]                                   
  N           1    7.0000    39    27      [11s6p2d|5s4p2d]                                   
  O           2    8.0000    39    27      [11s6p2d|5s4p2d]                                   
  H           5    1.0000    11     9      [5s2p|3s2p]                                        
  ----------------------------------------------------------------------
  total:     14   64.0000   406   288
  ----------------------------------------------------------------------
  Spherical harmonic basis used.

  Threshold for neglecting AO integrals:  1.00D-12


  Symmetry Coordinates
  --------------------

  Number of coordinates in each symmetry:    14   14    9    5


   Interatomic separations (in Angstrom):
   --------------------------------------

            C           C   _1      C   _2      C   _1      C   _2      C     
            ------      ------      ------      ------      ------      ------
 C     :    0.000000
 C   _1:    1.391719    0.000000
 C   _2:    1.391719    2.438107    0.000000
 C   _1:    2.392065    1.391780    2.799956    0.000000
 C   _2:    2.392065    2.799956    1.391780    2.421019    0.000000
 C     :    2.757573    2.416230    2.416230    1.395542    1.395542    0.000000
 N     :    1.481505    2.474093    2.474093    3.745665    3.745665    4.239078
 O   _1:    2.616003    3.698845    3.272899    4.953559    4.646394    5.336565
 O   _2:    2.616003    3.272899    3.698845    4.646394    4.953559    5.336565
 H   _1:    2.143694    1.081451    3.407316    2.166922    3.881063    3.407904
 H   _2:    2.143694    3.407316    1.081451    3.881063    2.166922    3.407904
 H   _1:    3.376890    2.145360    3.883675    1.083722    3.403140    2.154719
 H   _2:    3.376890    3.883675    2.145360    3.403140    1.083722    2.154719
 H     :    3.841819    3.396703    3.396703    2.151500    2.151500    1.084247

            N           O   _1      O   _2      H   _1      H   _2      H   _1
            ------      ------      ------      ------      ------      ------
 N     :    0.000000
 O   _1:    1.224763    0.000000
 O   _2:    1.224763    1.217988    0.000000
 H   _1:    2.665523    3.819313    3.061304    0.000000
 H   _2:    2.665523    3.061304    3.819313    4.282121    0.000000
 H   _1:    4.616894    5.841024    5.374194    2.498398    4.964773    0.000000
 H   _2:    4.616894    5.374194    5.841024    4.964773    2.498398    4.298566
 H     :    5.323325    6.414922    6.414922    4.305675    4.305675    2.479943

            H   _2      H     
            ------      ------
 H   _2:    0.000000
 H     :    2.479943    0.000000


  Max    interatomic separation is    6.4149 Angstrom (   12.1224 Bohr)
  between atoms   14 and    8, "H     " and "O   _1".

  Min HX interatomic separation is    1.0815 Angstrom (    2.0436 Bohr)

  Min YX interatomic separation is    1.2180 Angstrom (    2.3017 Bohr)


  Bond distances (Angstrom):
  --------------------------

                  atom 1     atom 2       distance
                  ------     ------       --------
  bond distance:  C   _1     C            1.391719
  bond distance:  C   _2     C            1.391719
  bond distance:  C   _1     C   _1       1.391780
  bond distance:  C   _2     C   _2       1.391780
  bond distance:  C          C   _1       1.395542
  bond distance:  C          C   _2       1.395542
  bond distance:  N          C            1.481505
  bond distance:  O   _1     N            1.224763
  bond distance:  O   _2     N            1.224763
  bond distance:  O   _2     O   _1       1.217988
  bond distance:  H   _1     C   _1       1.081451
  bond distance:  H   _2     C   _2       1.081451
  bond distance:  H   _1     C   _1       1.083722
  bond distance:  H   _2     C   _2       1.083722
  bond distance:  H          C            1.084247


  Bond angles (degrees):
  ----------------------

                  atom 1     atom 2     atom 3         angle
                  ------     ------     ------         -----
  bond angle:     C   _1     C          C   _2       122.311
  bond angle:     C   _1     C          N            118.844
  bond angle:     C   _2     C          N            118.844
  bond angle:     C          C   _1     C   _1       118.493
  bond angle:     C          C   _1     H   _1       119.647
  bond angle:     C   _1     C   _1     H   _1       121.860
  bond angle:     C          C   _2     C   _2       118.493
  bond angle:     C          C   _2     H   _2       119.647
  bond angle:     C   _2     C   _2     H   _2       121.860
  bond angle:     C   _1     C   _1     C            120.192
  bond angle:     C   _1     C   _1     H   _1       119.623
  bond angle:     C          C   _1     H   _1       120.185
  bond angle:     C   _2     C   _2     C            120.192
  bond angle:     C   _2     C   _2     H   _2       119.623
  bond angle:     C          C   _2     H   _2       120.185
  bond angle:     C   _1     C          C   _2       120.319
  bond angle:     C   _1     C          H            119.841
  bond angle:     C   _2     C          H            119.841
  bond angle:     C          N          O   _1       150.183
  bond angle:     C          N          O   _2       150.183
  bond angle:     O   _1     N          O   _2        59.634
  bond angle:     N          O   _1     O   _2        60.183
  bond angle:     N          O   _2     O   _1        60.183




 Principal moments of inertia (u*A**2) and principal axes
 --------------------------------------------------------

   IA     101.249522          0.000000    0.000000    1.000000
   IB     470.307543          1.000000    0.000000    0.000000
   IC     571.557065          0.000000    1.000000    0.000000


 Rotational constants
 --------------------

@    The molecule is planar.

               A                   B                   C

           4991.4212           1074.5713            884.2144 MHz
            0.166496            0.035844            0.029494 cm-1


@  Nuclear repulsion energy :  414.423788928443 Hartree


  Symmetry Orbitals
  -----------------

  Number of orbitals in each symmetry:         115   91   48   34


  Symmetry  A1 ( 1)

    1     C        1s         1
    2     C        1s         2
    3     C        1s         3
    4     C        1s         4
    5     C        1s         5
    6     C        2pz        8
    7     C        2pz       11
    8     C        2pz       14
    9     C        2pz       17
   10     C        3d0       20
   11     C        3d2+      22
   12     C        3d0       25
   13     C        3d2+      27
   14     C        1s        28 +   29
   15     C        1s        30 +   31
   16     C        1s        32 +   33
   17     C        1s        34 +   35
   18     C        1s        36 +   37
   19     C        2px       38 -   39
   20     C        2pz       42 +   43
   21     C        2px       44 -   45
   22     C        2pz       48 +   49
   23     C        2px       50 -   51
   24     C        2pz       54 +   55
   25     C        2px       56 -   57
   26     C        2pz       60 +   61
   27     C        3d0       66 +   67
   28     C        3d1+      68 -   69
   29     C        3d2+      70 +   71
   30     C        3d0       76 +   77
   31     C        3d1+      78 -   79
   32     C        3d2+      80 +   81
   33     C        1s        82 +   83
   34     C        1s        84 +   85
   35     C        1s        86 +   87
   36     C        1s        88 +   89
   37     C        1s        90 +   91
   38     C        2px       92 -   93
   39     C        2pz       96 +   97
   40     C        2px       98 -   99
   41     C        2pz      102 +  103
   42     C        2px      104 -  105
   43     C        2pz      108 +  109
   44     C        2px      110 -  111
   45     C        2pz      114 +  115
   46     C        3d0      120 +  121
   47     C        3d1+     122 -  123
   48     C        3d2+     124 +  125
   49     C        3d0      130 +  131
   50     C        3d1+     132 -  133
   51     C        3d2+     134 +  135
   52     C        1s       136
   53     C        1s       137
   54     C        1s       138
   55     C        1s       139
   56     C        1s       140
   57     C        2pz      143
   58     C        2pz      146
   59     C        2pz      149
   60     C        2pz      152
   61     C        3d0      155
   62     C        3d2+     157
   63     C        3d0      160
   64     C        3d2+     162
   65     N        1s       163
   66     N        1s       164
   67     N        1s       165
   68     N        1s       166
   69     N        1s       167
   70     N        2pz      170
   71     N        2pz      173
   72     N        2pz      176
   73     N        2pz      179
   74     N        3d0      182
   75     N        3d2+     184
   76     N        3d0      187
   77     N        3d2+     189
   78     O        1s       190 +  191
   79     O        1s       192 +  193
   80     O        1s       194 +  195
   81     O        1s       196 +  197
   82     O        1s       198 +  199
   83     O        2px      200 -  201
   84     O        2pz      204 +  205
   85     O        2px      206 -  207
   86     O        2pz      210 +  211
   87     O        2px      212 -  213
   88     O        2pz      216 +  217
   89     O        2px      218 -  219
   90     O        2pz      222 +  223
   91     O        3d0      228 +  229
   92     O        3d1+     230 -  231
   93     O        3d2+     232 +  233
   94     O        3d0      238 +  239
   95     O        3d1+     240 -  241
   96     O        3d2+     242 +  243
   97     H        1s       244 +  245
   98     H        1s       246 +  247
   99     H        1s       248 +  249
  100     H        2px      250 -  251
  101     H        2pz      254 +  255
  102     H        2px      256 -  257
  103     H        2pz      260 +  261
  104     H        1s       262 +  263
  105     H        1s       264 +  265
  106     H        1s       266 +  267
  107     H        2px      268 -  269
  108     H        2pz      272 +  273
  109     H        2px      274 -  275
  110     H        2pz      278 +  279
  111     H        1s       280
  112     H        1s       281
  113     H        1s       282
  114     H        2pz      285
  115     H        2pz      288


  Symmetry  B1 ( 2)

  116     C        2px        6
  117     C        2px        9
  118     C        2px       12
  119     C        2px       15
  120     C        3d1+      21
  121     C        3d1+      26
  122     C        1s        28 -   29
  123     C        1s        30 -   31
  124     C        1s        32 -   33
  125     C        1s        34 -   35
  126     C        1s        36 -   37
  127     C        2px       38 +   39
  128     C        2pz       42 -   43
  129     C        2px       44 +   45
  130     C        2pz       48 -   49
  131     C        2px       50 +   51
  132     C        2pz       54 -   55
  133     C        2px       56 +   57
  134     C        2pz       60 -   61
  135     C        3d0       66 -   67
  136     C        3d1+      68 +   69
  137     C        3d2+      70 -   71
  138     C        3d0       76 -   77
  139     C        3d1+      78 +   79
  140     C        3d2+      80 -   81
  141     C        1s        82 -   83
  142     C        1s        84 -   85
  143     C        1s        86 -   87
  144     C        1s        88 -   89
  145     C        1s        90 -   91
  146     C        2px       92 +   93
  147     C        2pz       96 -   97
  148     C        2px       98 +   99
  149     C        2pz      102 -  103
  150     C        2px      104 +  105
  151     C        2pz      108 -  109
  152     C        2px      110 +  111
  153     C        2pz      114 -  115
  154     C        3d0      120 -  121
  155     C        3d1+     122 +  123
  156     C        3d2+     124 -  125
  157     C        3d0      130 -  131
  158     C        3d1+     132 +  133
  159     C        3d2+     134 -  135
  160     C        2px      141
  161     C        2px      144
  162     C        2px      147
  163     C        2px      150
  164     C        3d1+     156
  165     C        3d1+     161
  166     N        2px      168
  167     N        2px      171
  168     N        2px      174
  169     N        2px      177
  170     N        3d1+     183
  171     N        3d1+     188
  172     O        1s       190 -  191
  173     O        1s       192 -  193
  174     O        1s       194 -  195
  175     O        1s       196 -  197
  176     O        1s       198 -  199
  177     O        2px      200 +  201
  178     O        2pz      204 -  205
  179     O        2px      206 +  207
  180     O        2pz      210 -  211
  181     O        2px      212 +  213
  182     O        2pz      216 -  217
  183     O        2px      218 +  219
  184     O        2pz      222 -  223
  185     O        3d0      228 -  229
  186     O        3d1+     230 +  231
  187     O        3d2+     232 -  233
  188     O        3d0      238 -  239
  189     O        3d1+     240 +  241
  190     O        3d2+     242 -  243
  191     H        1s       244 -  245
  192     H        1s       246 -  247
  193     H        1s       248 -  249
  194     H        2px      250 +  251
  195     H        2pz      254 -  255
  196     H        2px      256 +  257
  197     H        2pz      260 -  261
  198     H        1s       262 -  263
  199     H        1s       264 -  265
  200     H        1s       266 -  267
  201     H        2px      268 +  269
  202     H        2pz      272 -  273
  203     H        2px      274 +  275
  204     H        2pz      278 -  279
  205     H        2px      283
  206     H        2px      286


  Symmetry  B2 ( 3)

  207     C        2py        7
  208     C        2py       10
  209     C        2py       13
  210     C        2py       16
  211     C        3d1-      19
  212     C        3d1-      24
  213     C        2py       40 +   41
  214     C        2py       46 +   47
  215     C        2py       52 +   53
  216     C        2py       58 +   59
  217     C        3d2-      62 -   63
  218     C        3d1-      64 +   65
  219     C        3d2-      72 -   73
  220     C        3d1-      74 +   75
  221     C        2py       94 +   95
  222     C        2py      100 +  101
  223     C        2py      106 +  107
  224     C        2py      112 +  113
  225     C        3d2-     116 -  117
  226     C        3d1-     118 +  119
  227     C        3d2-     126 -  127
  228     C        3d1-     128 +  129
  229     C        2py      142
  230     C        2py      145
  231     C        2py      148
  232     C        2py      151
  233     C        3d1-     154
  234     C        3d1-     159
  235     N        2py      169
  236     N        2py      172
  237     N        2py      175
  238     N        2py      178
  239     N        3d1-     181
  240     N        3d1-     186
  241     O        2py      202 +  203
  242     O        2py      208 +  209
  243     O        2py      214 +  215
  244     O        2py      220 +  221
  245     O        3d2-     224 -  225
  246     O        3d1-     226 +  227
  247     O        3d2-     234 -  235
  248     O        3d1-     236 +  237
  249     H        2py      252 +  253
  250     H        2py      258 +  259
  251     H        2py      270 +  271
  252     H        2py      276 +  277
  253     H        2py      284
  254     H        2py      287


  Symmetry  A2 ( 4)

  255     C        3d2-      18
  256     C        3d2-      23
  257     C        2py       40 -   41
  258     C        2py       46 -   47
  259     C        2py       52 -   53
  260     C        2py       58 -   59
  261     C        3d2-      62 +   63
  262     C        3d1-      64 -   65
  263     C        3d2-      72 +   73
  264     C        3d1-      74 -   75
  265     C        2py       94 -   95
  266     C        2py      100 -  101
  267     C        2py      106 -  107
  268     C        2py      112 -  113
  269     C        3d2-     116 +  117
  270     C        3d1-     118 -  119
  271     C        3d2-     126 +  127
  272     C        3d1-     128 -  129
  273     C        3d2-     153
  274     C        3d2-     158
  275     N        3d2-     180
  276     N        3d2-     185
  277     O        2py      202 -  203
  278     O        2py      208 -  209
  279     O        2py      214 -  215
  280     O        2py      220 -  221
  281     O        3d2-     224 +  225
  282     O        3d1-     226 -  227
  283     O        3d2-     234 +  235
  284     O        3d1-     236 -  237
  285     H        2py      252 -  253
  286     H        2py      258 -  259
  287     H        2py      270 -  271
  288     H        2py      276 -  277

  Symmetries of electric field:  B1 (2)  B2 (3)  A1 (1)

  Symmetries of magnetic field:  B2 (3)  B1 (2)  A2 (4)


                     .---------------------------------------.
                     | Starting in Integral Section (HERMIT) |
                     `---------------------------------------'



 ***************************************************************************************
 ****************** Output from **INTEGRALS input processing (HERMIT) ******************
 ***************************************************************************************


 - Using defaults, no **INTEGRALS input found

 Default print level:        1

 Calculation of one-electron Hamiltonian integrals.

 Center of mass  (bohr):      0.000000000000      0.000000000000     -0.141222092998
 Operator center (bohr):      0.000000000000      0.000000000000      0.000000000000
 Gauge origin    (bohr):      0.000000000000      0.000000000000      0.000000000000
 Dipole origin   (bohr):      0.000000000000      0.000000000000      0.000000000000


     ************************************************************************
     ************************** Output from HERINT **************************
     ************************************************************************



                      Nuclear contribution to dipole moments
                      --------------------------------------

                 au               Debye          C m (/(10**-30)

      z    -17.47624637       -44.42018468      -148.16978712


  Time used in GABGEN     is       0.11 seconds
  Total CPU  time used in HERMIT:   0.41 seconds
  Total wall time used in HERMIT:   0.41 seconds


                        .----------------------------------.
                        | End of Integral Section (HERMIT) |
                        `----------------------------------'



                   .--------------------------------------------.
                   | Starting in Wave Function Section (SIRIUS) |
                   `--------------------------------------------'


 *** Output from Huckel module :

     Using EWMO model:          F
     Using EHT  model:          T
     Number of Huckel orbitals each symmetry:   24   17    6    3

 Huckel EHT eigenvalues for symmetry :  1
          -20.719592     -15.706194     -11.414845     -11.394407     -11.376677
          -11.362578      -1.923621      -1.577192      -1.265968      -1.003651
           -0.831743      -0.733049      -0.639829      -0.621887      -0.539515
           -0.438236      -0.310543      -0.237726      -0.220107      -0.213424
           -0.205737      -0.178517      -0.166794      -0.160392

 Huckel EHT eigenvalues for symmetry :  2
          -20.699416     -11.396450     -11.377841      -1.243249      -1.156452
           -0.882236      -0.595728      -0.533982      -0.484883      -0.417011
           -0.379463      -0.330055      -0.213847      -0.202815      -0.176269
           -0.165469      -0.163311

 Huckel EHT eigenvalues for symmetry :  3
           -0.835835      -0.696900      -0.484737      -0.391526      -0.281565
           -0.236524

 Huckel EHT eigenvalues for symmetry :  4
           -0.505930      -0.460528      -0.288955

 **********************************************************************
 *SIRIUS* a direct, restricted step, second order MCSCF program       *
 **********************************************************************

 
     Date and time (Linux)  : Sun Dec 22 15:17:58 2019
     Host name              : Lab2-333-NPs                            

 Title lines from ".mol" input file:
      nitrobenzene                                                           
      Generated by the Dalton Input File Plugin for Avogadro                 

 Print level on unit LUPRI =   2 is   0
 Print level on unit LUW4  =   2 is   5

@    MC-SCF optimization.

@    Multi-configurational response calculation.
@              Type: complete active space calculation (CAS).

@    This is a combination run starting with
@              a restricted, closed shell Hartree-Fock calculation
@              an MP2 calculation

 Fock matrices are calculated directly without use of integrals on disk.

 Initial molecular orbitals are obtained according to
 ".MOSTART EHT   " input option

     Wave function specification
     ============================
@    Wave function type        --- MC-SCF ---
@    Number of closed shell electrons          54
@    Number of electrons in active shells      10
@    Total charge of the molecule               0

@    Spin multiplicity and 2 M_S                3         2
@    Total number of symmetries                 4 (point group: C2v)
@    Reference state symmetry                   1 (irrep name : A1 )

     Orbital specifications
     ======================
@    Abelian symmetry species          All |    1    2    3    4
@                                          |  A1   B1   B2   A2 
                                       --- |  ---  ---  ---  ---
@    Inactive orbitals                  27 |   15   10    2    0
@    Active orbitals                     7 |    1    1    2    3
@    Secondary orbitals                254 |   99   80   44   31
@    Total number of orbitals          288 |  115   91   48   34
@    Number of basis functions         288 |  115   91   48   34

      ** Automatic occupation of RHF orbitals **

      -- Initial occupation of symmetries is determined from extended Huckel guess.           
      -- Initial occupation of symmetries is :
@    Occupied SCF orbitals              32 |   16   10    4    2

     Optimization information
     ========================
@    Number of determinants                  56
@    Number of orbital rotations           2762
     ------------------------------------------
@    Total number of variables             2818

     Maximum number of macro iterations      40
     Maximum number of micro iterations     960
     Threshold for MCSCF gradient      1.00D-05
     Number of initial trial vectors          2
     Number of initial CI iterations          3
     Number of simultaneous trial vectors     2

@    This calculation converges to state no.   2 for the specified symmetry and spin species.

     Maximum number of NEO/NR iterations  24

    INFORMATION: Switched to "new" integral transformation (from 1988 ;-) )
    because more than 255 basis functions.


 ***********************************************
 ***** DIIS acceleration of SCF iterations *****
 ***********************************************

 C1-DIIS algorithm; max error vectors =    8

 Automatic occupation of symmetries with  64 electrons.

 Iter     Total energy    Error norm  Delta(E)    SCF occupation
 -----------------------------------------------------------------------------
   1  Screening settings (-IFTHRS, JTDIIS, DIFDEN, times)   -8    1    T  2.80D+01  2.80D+01
@  1  -432.286717245       6.08D+00  -4.32D+02    16  10   4   2
      Virial theorem: -V/T =      1.999934
@    MULPOP   C       0.45; C   _1  0.10; C   _2  0.10; C   _1  0.26; C   _2  0.26; C       0.19; N       0.12; O   _1 -0.28; O   _2 -0.28; H   _1 -0.19; 
@             H   _2 -0.19; H   _1 -0.18; H   _2 -0.18; H      -0.18; 
   1  Level shift: doubly occupied orbital energies shifted by -2.00D-01
 -----------------------------------------------------------------------------
   2  Screening settings (-IFTHRS, JTDIIS, DIFDEN, times)   -8    2    T  2.80D+01  2.80D+01
@  2  -433.829972057       1.41D+00  -1.54D+00    16  10   4   2
      Virial theorem: -V/T =      1.994904
@    MULPOP   C       1.51; C   _1  0.11; C   _2  0.11; C   _1  0.39; C   _2  0.39; C       0.37; N       0.42; O   _1 -0.58; O   _2 -0.58; H   _1 -0.45; 
@             H   _2 -0.45; H   _1 -0.41; H   _2 -0.41; H      -0.42; 
   2  Level shift: doubly occupied orbital energies shifted by -5.00D-02
 -----------------------------------------------------------------------------
   3  Screening settings (-IFTHRS, JTDIIS, DIFDEN, times)   -8    3    T  2.79D+01  2.79D+01
@  3  -433.941932461       4.34D-01  -1.12D-01    16  10   4   2
      Virial theorem: -V/T =      1.999625
@    MULPOP   C       1.95; C   _1  0.01; C   _2  0.01; C   _1  0.55; C   _2  0.55; C       0.33; N       0.35; O   _1 -0.67; O   _2 -0.67; H   _1 -0.51; 
@             H   _2 -0.51; H   _1 -0.46; H   _2 -0.46; H      -0.47; 
   3  Level shift: doubly occupied orbital energies shifted by -2.50D-02
 -----------------------------------------------------------------------------
   4  Screening settings (-IFTHRS, JTDIIS, DIFDEN, times)   -8    4    T  2.78D+01  2.78D+01
@  4  -433.954628744       1.46D-01  -1.27D-02    16  10   4   2
      Virial theorem: -V/T =      1.998942
@    MULPOP   C       1.97; C   _1 -0.03; C   _2 -0.03; C   _1  0.57; C   _2  0.57; C       0.33; N       0.28; O   _1 -0.66; O   _2 -0.66; H   _1 -0.50; 
@             H   _2 -0.50; H   _1 -0.45; H   _2 -0.45; H      -0.47; 
   4  Level shift: doubly occupied orbital energies shifted by -1.25D-02
 -----------------------------------------------------------------------------
   5  Screening settings (-IFTHRS, JTDIIS, DIFDEN, times)  -10    5    F  2.82D+01  2.82D+01
@  5  -433.956017355       4.82D-02  -1.39D-03    16  10   4   2
      Virial theorem: -V/T =      1.998626
@    MULPOP   C       1.99; C   _1 -0.04; C   _2 -0.04; C   _1  0.57; C   _2  0.57; C       0.31; N       0.28; O   _1 -0.66; O   _2 -0.66; H   _1 -0.49; 
@             H   _2 -0.49; H   _1 -0.44; H   _2 -0.44; H      -0.46; 
 -----------------------------------------------------------------------------
   6  Screening settings (-IFTHRS, JTDIIS, DIFDEN, times)  -10    6    T  2.79D+01  2.79D+01
@  6  -433.956197099       1.11D-02  -1.80D-04    16  10   4   2
      Virial theorem: -V/T =      1.998741
@    MULPOP   C       2.00; C   _1 -0.04; C   _2 -0.04; C   _1  0.57; C   _2  0.57; C       0.32; N       0.28; O   _1 -0.66; O   _2 -0.66; H   _1 -0.49; 
@             H   _2 -0.49; H   _1 -0.44; H   _2 -0.44; H      -0.46; 
 -----------------------------------------------------------------------------
   7  Screening settings (-IFTHRS, JTDIIS, DIFDEN, times)  -13    7    F  2.84D+01  2.84D+01
@  7  -433.956211079       3.58D-03  -1.40D-05    16  10   4   2
      Virial theorem: -V/T =      1.998736
@    MULPOP   C       2.00; C   _1 -0.04; C   _2 -0.04; C   _1  0.57; C   _2  0.57; C       0.32; N       0.27; O   _1 -0.66; O   _2 -0.66; H   _1 -0.49; 
@             H   _2 -0.49; H   _1 -0.44; H   _2 -0.44; H      -0.46; 
 -----------------------------------------------------------------------------
   8  Screening settings (-IFTHRS, JTDIIS, DIFDEN, times)  -13    8    T  2.82D+01  2.82D+01
@  8  -433.956213042       1.61D-03  -1.96D-06    16  10   4   2
      Virial theorem: -V/T =      1.998731
@    MULPOP   C       2.00; C   _1 -0.04; C   _2 -0.04; C   _1  0.57; C   _2  0.57; C       0.32; N       0.27; O   _1 -0.66; O   _2 -0.66; H   _1 -0.49; 
@             H   _2 -0.49; H   _1 -0.44; H   _2 -0.44; H      -0.46; 
 -----------------------------------------------------------------------------
   9  Screening settings (-IFTHRS, JTDIIS, DIFDEN, times)  -13    9    T  2.83D+01  2.83D+01
@  9  -433.956213590       6.04D-04  -5.48D-07    16  10   4   2
      Virial theorem: -V/T =      1.998733
@    MULPOP   C       2.00; C   _1 -0.04; C   _2 -0.04; C   _1  0.57; C   _2  0.57; C       0.32; N       0.27; O   _1 -0.66; O   _2 -0.66; H   _1 -0.49; 
@             H   _2 -0.49; H   _1 -0.44; H   _2 -0.44; H      -0.46; 
 -----------------------------------------------------------------------------
  10  Screening settings (-IFTHRS, JTDIIS, DIFDEN, times)  -13   10    T  2.80D+01  2.81D+01
@ 10  -433.956213725       2.67D-04  -1.34D-07    16  10   4   2
      Virial theorem: -V/T =      1.998734
@    MULPOP   C       2.00; C   _1 -0.04; C   _2 -0.04; C   _1  0.57; C   _2  0.57; C       0.32; N       0.27; O   _1 -0.66; O   _2 -0.66; H   _1 -0.49; 
@             H   _2 -0.49; H   _1 -0.44; H   _2 -0.44; H      -0.46; 
 -----------------------------------------------------------------------------
  11  Screening settings (-IFTHRS, JTDIIS, DIFDEN, times)  -13   11    T  2.83D+01  2.83D+01
@ 11  -433.956213748       1.23D-04  -2.28D-08    16  10   4   2
      Virial theorem: -V/T =      1.998733
@    MULPOP   C       2.00; C   _1 -0.04; C   _2 -0.04; C   _1  0.57; C   _2  0.57; C       0.32; N       0.27; O   _1 -0.66; O   _2 -0.66; H   _1 -0.49; 
@             H   _2 -0.49; H   _1 -0.44; H   _2 -0.44; H      -0.46; 
 -----------------------------------------------------------------------------
  12  Screening settings (-IFTHRS, JTDIIS, DIFDEN, times)  -13   12    T  2.83D+01  2.83D+01
@ 12  -433.956213752       4.12D-05  -4.42D-09    16  10   4   2
      Virial theorem: -V/T =      1.998734
@    MULPOP   C       2.00; C   _1 -0.04; C   _2 -0.04; C   _1  0.57; C   _2  0.57; C       0.32; N       0.27; O   _1 -0.66; O   _2 -0.66; H   _1 -0.49; 
@             H   _2 -0.49; H   _1 -0.44; H   _2 -0.44; H      -0.46; 
 -----------------------------------------------------------------------------
  13  Screening settings (-IFTHRS, JTDIIS, DIFDEN, times)  -13   13    T  2.81D+01  2.81D+01
@ 13  -433.956213752       9.08D-06  -3.64D-10    16  10   4   2
      Virial theorem: -V/T =      1.998733
@    MULPOP   C       2.00; C   _1 -0.04; C   _2 -0.04; C   _1  0.57; C   _2  0.57; C       0.32; N       0.27; O   _1 -0.66; O   _2 -0.66; H   _1 -0.49; 
@             H   _2 -0.49; H   _1 -0.44; H   _2 -0.44; H      -0.46; 
 -----------------------------------------------------------------------------
  14  Screening settings (-IFTHRS, JTDIIS, DIFDEN, times)  -13   14    T  2.80D+01  2.80D+01
@ 14  -433.956213752       3.98D-06  -1.35D-11    16  10   4   2
      Virial theorem: -V/T =      1.998733
@    MULPOP   C       2.00; C   _1 -0.04; C   _2 -0.04; C   _1  0.57; C   _2  0.57; C       0.32; N       0.27; O   _1 -0.66; O   _2 -0.66; H   _1 -0.49; 
@             H   _2 -0.49; H   _1 -0.44; H   _2 -0.44; H      -0.46; 
 -----------------------------------------------------------------------------
  15  Screening settings (-IFTHRS, JTDIIS, DIFDEN, times)  -13   15    T  2.78D+01  2.78D+01
@ 15  -433.956213752       1.15D-06  -1.36D-12    16  10   4   2
      Virial theorem: -V/T =      1.998733
@    MULPOP   C       2.00; C   _1 -0.04; C   _2 -0.04; C   _1  0.57; C   _2  0.57; C       0.32; N       0.27; O   _1 -0.66; O   _2 -0.66; H   _1 -0.49; 
@             H   _2 -0.49; H   _1 -0.44; H   _2 -0.44; H      -0.46; 
 -----------------------------------------------------------------------------
  16  Screening settings (-IFTHRS, JTDIIS, DIFDEN, times)  -13   16    T  2.79D+01  2.79D+01
@ 16  -433.956213752       5.97D-07   1.36D-12    16  10   4   2

@ *** DIIS converged in  16 iterations !
@     Converged SCF energy, gradient:   -433.956213752487    5.97D-07
    - total time used in SIRFCK :              0.00 seconds

 --- Writing SIRIFC interface file

 CPU and wall time for SCF :     449.625     449.854


 ----- Output from SIRIUS MP2 module -----

 Reference: H.J.Aa.Jensen, P.Jorgensen, H.Agren, and J.Olsen,
            J. Chem. Phys. 88, 3834 (1988); 89, 5354 (1988)

 Checking that the closed shell orbitals are canonical Hartree-Fock orbitals

    Number of electrons  :   64
    Closed shell orbitals:   16   10    4    2

 Generating Fock matrix

 Hartree-Fock electronic energy:        -848.380002680934
 Hartree-Fock total      energy:        -433.956213752491

 Hartree-Fock orbital energies, symmetry 1 ( A1 ),   16 occupied SCF orbitals

       -20.69038345   -15.67499838   -11.34939326   -11.26452203   -11.25779489
       -11.24595136    -1.87821149    -1.20067673    -1.12023218    -1.01149919
        -0.86858441    -0.78216605    -0.71419469    -0.68401226    -0.62755186
        -0.53162096     0.03310368     0.04548541     0.06348652     0.10805273
         0.12419137     0.14134648     0.15543304     0.15741168     0.17026806
         0.18373938     0.20396812     0.26154374     0.26800672     0.29142097
         0.32156364     0.33523970     0.34506237     0.35996467     0.36516545
         0.39210825     0.41012322     0.42462964     0.45572022     0.47833503
         0.51265251     0.57123821     0.57560846     0.61902791     0.62488780
         0.66822639     0.67548943     0.69138716     0.71897806     0.76068104
         0.78797109     0.84869168     0.90322215     0.91041035     0.95806071
         0.99374030     1.01991862     1.06692976     1.08585996     1.10289312
         1.19376172     1.29345272     1.33586836     1.41183818     1.49494003
         1.53926528     1.54627658     1.58964955     1.60415243     1.63166942
         1.71378948     1.73384591     1.76807642     1.79728110     1.87022613
         1.96004743     1.99330534     2.03381672     2.03839583     2.21134466
         2.23694004     2.30060029     2.40227698     2.40978981     2.44115548
         2.51861504     2.58331745     2.68609922     2.75043409     2.83932953
         2.91364475     2.96555056     3.05504032     3.16263359     3.23802037
         3.36380839     3.51067415     3.72433660     3.95871707     4.18255615
        19.82166998    20.33059265    20.47216211    20.64052111    23.37057686
        23.43901505    23.48768109    23.81168617    23.91154602    24.13006052
        27.35983775    31.71108162    35.80289066    39.78504086    40.08783389

 Hartree-Fock orbital energies, symmetry 2 ( B1 ),   10 occupied SCF orbitals

       -20.68971992   -11.26449918   -11.25780892    -1.20514831    -1.03948350
        -0.85390346    -0.66367511    -0.61627363    -0.60797479    -0.51841549
         0.03875608     0.05706149     0.13300184     0.13708299     0.15117073
         0.16066201     0.18079506     0.20766922     0.25749552     0.29363275
         0.30417073     0.31093241     0.33238620     0.35551685     0.37264697
         0.39244898     0.41310693     0.43296978     0.47740345     0.55283205
         0.58106056     0.58350935     0.64476851     0.65976690     0.68455743
         0.70368739     0.76264469     0.77836276     0.83383405     0.85262007
         0.88350491     0.89593118     1.03455295     1.17033386     1.23352737
         1.32409195     1.34654489     1.37470940     1.49039834     1.49919002
         1.50984978     1.56828037     1.60751679     1.65151920     1.72166895
         1.76901603     1.78656620     1.82898768     1.87214343     1.93207936
         2.05557441     2.14459702     2.17523723     2.31748301     2.33307512
         2.39086904     2.45653593     2.50156568     2.58370035     2.73182903
         2.90973123     2.94683982     3.16074058     3.34216523     3.36230705
         3.42963897     3.90652531     4.24195564     4.56321967    20.29663496
        20.47987480    22.88109926    23.33142444    23.39579269    23.96132679
        24.13376347    24.32070895    31.33170193    35.68402294    39.90476684
        39.93328829

 Hartree-Fock orbital energies, symmetry 3 ( B2 ),    4 occupied SCF orbitals

        -0.86064296    -0.54054771    -0.42553194    -0.29773012     0.10483621
         0.11987690     0.13887658     0.18531916     0.19073700     0.23493643
         0.29990336     0.34048314     0.39193827     0.46760380     0.54716680
         0.59962339     0.67196893     0.72030821     0.79560950     0.87731176
         0.90699464     0.93256034     0.95218416     1.04411947     1.09288913
         1.15164689     1.17912706     1.48116294     1.52574529     1.63010186
         1.67933814     1.71783285     1.84482431     1.93770467     2.07524244
         2.09826169     2.17890742     2.30938164     2.57492469     2.69781140
         3.23335077     3.83466875    22.56513324    22.71438179    22.84415190
        23.04206474    30.74785466    39.44244715

 Hartree-Fock orbital energies, symmetry 4 ( A2 ),    2 occupied SCF orbitals

        -0.46848304    -0.35884057     0.09390278     0.13701780     0.19091588
         0.28144328     0.41857804     0.49474289     0.55114456     0.65854642
         0.74519426     0.88933533     0.90982762     0.94810422     1.04185024
         1.08111839     1.23050399     1.26808978     1.44353007     1.57712220
         1.69209313     1.70268198     1.88072807     1.90586806     2.11583188
         2.19196685     2.36144916     2.53643688     2.62858284     3.80993892
         4.00869252    22.70932082    22.87858223    39.38170111

    E(LUMO) :     0.03310368   (in symmetry 1)
  - E(HOMO) :    -0.29773012   (in symmetry 3)
  --------------------------
    gap     :     0.33083380

---> (Re)generating AOTWOINT


     ************************************************************************
     ************************** Output from HERINT **************************
     ************************************************************************


 Threshold for neglecting two-electron integrals:  1.00D-12
 HERMIT - Number of two-electron integrals written:   198998897 ( 23.0% )
 HERMIT - Megabytes written:                           3037.749

  Time used in TWOINT     is      39.14 seconds

 2-el. integral transformation level 5: Total CPU and WALL times (sec)     412.406     414.669

 MP2 move   0.915668 electrons to unoccupied HF orbitals


@   Hartree-Fock total energy   :          -433.9562137525
@   + MP2 contribution          :            -1.6728420283
@   = MP2 second order energy   :          -435.6290557808

 Natural orbital occupation numbers, symmetry 1 (irrep A1 )
 Sum =    31.97512679; RHF =    32.00000000; Difference =    -0.02487321

         1.99928773     1.99906125     1.99876107     1.99875746     1.99875197
         1.99874835     1.98888816     1.98420202     1.97976470     1.97428139
         1.96969350     1.96628403     1.96329467     1.95789148     1.95287335
         1.94516646     0.03797838     0.02602985     0.02428052     0.02282076
         0.01901594     0.01744121     0.01663831     0.01360218     0.01340917
         0.01229374     0.00999129     0.00893729     0.00829701     0.00782812
         0.00682940     0.00645708     0.00467957     0.00437599     0.00333938
         0.00298589     0.00288736     0.00265953     0.00236426     0.00206720
         0.00191662     0.00169519     0.00152706     0.00129784     0.00127734
         0.00117055     0.00106923     0.00096229     0.00073710     0.00065729
         0.00061819     0.00051191     0.00048898     0.00044676     0.00042479
         0.00041467     0.00039873     0.00037490     0.00035598     0.00034258
         0.00033471     0.00031939     0.00031622     0.00030455     0.00028167
         0.00026122     0.00023331     0.00022570     0.00021877     0.00019837
         0.00019342     0.00018401     0.00017699     0.00017501     0.00016779
         0.00016059     0.00015276     0.00014453     0.00013949     0.00013652
         0.00013307     0.00012853     0.00011739     0.00010505     0.00010169
         0.00009355     0.00007879     0.00006601     0.00005911     0.00005249
         0.00004571     0.00003647     0.00003401     0.00002646     0.00002103
         0.00001716     0.00001406     0.00001260     0.00001084     0.00000972
         0.00000931     0.00000756     0.00000685     0.00000415     0.00000241
         0.00000127     0.00000104     0.00000074     0.00000061     0.00000032
         0.00000018     0.00000009    -0.00000008    -0.00000052    -0.00000090

 Natural orbital occupation numbers, symmetry 2 (irrep B1 )
 Sum =    20.01083381; RHF =    20.00000000; Difference =     0.01083381

         1.99928408     1.99875753     1.99874967     1.98136850     1.97998045
         1.97254585     1.96081153     1.95557275     1.95424381     1.94796190
         0.04698262     0.03305006     0.02498943     0.02323633     0.01704157
         0.01641936     0.01573864     0.01183219     0.00956174     0.00910635
         0.00804808     0.00557097     0.00533260     0.00350334     0.00322108
         0.00305580     0.00251022     0.00217278     0.00216112     0.00167024
         0.00162788     0.00151158     0.00135514     0.00131173     0.00105362
         0.00098805     0.00067972     0.00064361     0.00054307     0.00045823
         0.00042525     0.00040058     0.00037169     0.00034499     0.00033624
         0.00029815     0.00029088     0.00028000     0.00025002     0.00021548
         0.00020894     0.00019754     0.00018888     0.00018310     0.00018016
         0.00017173     0.00016737     0.00016269     0.00015179     0.00014531
         0.00013993     0.00013363     0.00012450     0.00012030     0.00011043
         0.00010222     0.00009341     0.00007822     0.00005267     0.00004773
         0.00004051     0.00003125     0.00003058     0.00002371     0.00001635
         0.00001367     0.00001202     0.00001113     0.00000933     0.00000855
         0.00000446     0.00000303     0.00000141     0.00000132     0.00000058
         0.00000036     0.00000027     0.00000013    -0.00000009    -0.00000065
        -0.00000118

 Natural orbital occupation numbers, symmetry 3 (irrep B2 )
 Sum =     7.99315482; RHF =     8.00000000; Difference =    -0.00684518

         1.97773414     1.95907605     1.94529020     1.90751940     0.07091199
         0.03196623     0.01661520     0.01436436     0.01091089     0.01020281
         0.00897980     0.00714831     0.00689606     0.00534280     0.00403958
         0.00334030     0.00225756     0.00162760     0.00147388     0.00091352
         0.00089698     0.00070725     0.00055646     0.00048428     0.00047468
         0.00042981     0.00039058     0.00034806     0.00030479     0.00024537
         0.00021469     0.00020178     0.00019209     0.00018267     0.00017255
         0.00013790     0.00012633     0.00011832     0.00009931     0.00009357
         0.00007788     0.00005556     0.00002454     0.00001836     0.00001048
         0.00000752     0.00000175    -0.00002943

 Natural orbital occupation numbers, symmetry 4 (irrep A2 )
 Sum =     4.02088459; RHF =     4.00000000; Difference =     0.02088459

         1.96807554     1.91300397     0.06960578     0.01596636     0.01103646
         0.00971235     0.00731686     0.00580641     0.00437933     0.00374928
         0.00274834     0.00202549     0.00146641     0.00096646     0.00079622
         0.00074487     0.00062997     0.00053692     0.00041541     0.00037607
         0.00031289     0.00023826     0.00019778     0.00019046     0.00015641
         0.00013482     0.00012440     0.00009988     0.00007510     0.00005084
         0.00002226     0.00001898     0.00000838    -0.00010439

 Time used for MP2 natural orbitals :     444.469 CPU seconds,     446.780 wall seconds.

 CPU and wall time for MP2 :     444.469     446.780


        SIRIUS MCSCF optimization (SIROPT)
 ================================================


 Fock matrix screening setting for SIRCNO: IFTHRS =    9


 ----- Output from SIRIUS CI module (CICTL) -----




 2-el. integral transformation level 0: Total CPU and WALL times (sec)      98.688      98.758


 --- SIRCI.CIST1: plus combination of all degenerate
                 configurations is used as start vectors.


 (CIST1) 18 lowest diagonal elements:

 Element no. Config.no.    Active energy      Total energy

         1 :         47    -15.2093733727   -433.7297122373
         2 :         48    -14.8768300712   -433.3971689358
         3 :         56    -14.7760019882   -433.2963408529
         4 :         51    -14.5666451501   -433.0869840147
         5 :         31    -14.5307104665   -433.0510493312
         6 :          9    -14.5292196907   -433.0495585553
         7 :         49    -14.4734352700   -432.9937741347
         8 :         39    -14.4715251667   -432.9918640313
         9 :         34    -14.3916382306   -432.9119770952
        10 :         10    -14.3901369737   -432.9104758383
        11 :         19    -14.3580080303   -432.8783468949
        12 :         50    -14.3277398714   -432.8480787360
        13 :         40    -14.3261521695   -432.8464910341
        14 :         21    -14.3061863341   -432.8265251987
        15 :         32    -14.2376653523   -432.7580042169
        16 :         15    -14.2362388524   -432.7565777170
        17 :          5    -14.1565645817   -432.6769034464
        18 :         52    -14.1511718555   -432.6715107201


 Convergence threshold for CI optimization :     0.00000500



 *** Reached maximum number of CI iterations:    3
              1 CI roots are not converged.


@ Final CI energies and residuals in symmetry 1 (irrep A1 )
@    1     -433.740819460803550       1.86D-03
@    2     -433.409080445502866       3.10D-04
@    3     -433.302897278730995       5.02D-03
@    4     -433.104969954950832       2.87D-02
@    5     -433.095048375254692       5.15D-03
@    6     -432.995642646249735       9.69D-02

   --- OUTPUT FROM SIRCNO     Keyword = FD+NO 


 Occupations of CAS natural orbitals:

 Symmetry  1 ( irrep A1  in C2v )

   1.984976627

 Symmetry  2 ( irrep B1  in C2v )

   0.015031374

 Symmetry  3 ( irrep B2  in C2v )

   1.999984921   1.999495905

 Symmetry  4 ( irrep A2  in C2v )

   1.000496226   1.999998886   1.000016062


 --- MACRO ITERATION  1 ---
 --------------------------

 2-el. integral transformation level 3: Total CPU and WALL times (sec)      99.734      99.799

 Fock matrix screening setting for this macro iteration: 10^( -9)

 Total MCSCF energy       :          -433.409080441763706  (MACRO    1)

 - Nuclear repulsion      :           414.423788928442832
 - Inactive energy        :          -832.944127790603261
 - Active energy          :           -14.888741579603250

 Norm of total gradient   :             1.665641765512
 -    of CI gradient      :             0.000620940109
 -    of orbital gradient :             1.665641649771
      Virial theorem: -V/T =      1.988614
@    MULPOP   C       1.92; C   _1 -0.15; C   _2 -0.15; C   _1  0.28; C   _2  0.28; C       0.37; N       1.35; O   _1 -0.69; O   _2 -0.69; H   _1 -0.54; 
@             H   _2 -0.54; H   _1 -0.47; H   _2 -0.47; H      -0.49; 

 Residual norm when dim(red L) =   5
 NEO root     CSF        orbital          total
    1     0.00463318     0.02077736     0.02128768 converged

 (NEONEX) NEO auxiliary root no.  1 is converged.

 (SIRNEO) iteration (  1,  6)
 Micro iteration termination criterion met, EVAL(ISTATE+1) = -2.65D-02

   --- OUTPUT FROM SIRCNO     Keyword = FD+NO 


 Occupations of CAS natural orbitals:

 Symmetry  1 ( irrep A1  in C2v )

   1.984974987

 Symmetry  2 ( irrep B1  in C2v )

   0.015033230

 Symmetry  3 ( irrep B2  in C2v )

   1.999984470   1.999492348

 Symmetry  4 ( irrep A2  in C2v )

   1.000499828   1.999998689   1.000016448


 --- MACRO ITERATION  2 ---
 --------------------------

 2-el. integral transformation level 3: Total CPU and WALL times (sec)      99.984     100.055

 Fock matrix screening setting for this macro iteration: 10^( -9)

 Total MCSCF energy       :          -433.655396797144761  (MACRO    2)

 - Nuclear repulsion      :           414.423788928442832
 - Inactive energy        :          -832.998317372752126
 - Active energy          :           -15.080868352835473

 Norm of total gradient   :             0.223552158100
 -    of CI gradient      :             0.043760396683
 -    of orbital gradient :             0.219227268088
      Virial theorem: -V/T =      1.987735
@    MULPOP   C       2.43; C   _1 -0.17; C   _2 -0.17; C   _1  0.49; C   _2  0.49; C       0.35; N       1.09; O   _1 -0.90; O   _2 -0.90; H   _1 -0.62; 
@             H   _2 -0.62; H   _1 -0.51; H   _2 -0.51; H      -0.45; 

 Residual norm when dim(red L) =   7
 NEO root     CSF        orbital          total
    1     0.02974157     0.02842974     0.04114378 converged

 (NEONEX) NEO auxiliary root no.  1 is converged.

 Residual norm when dim(red L) =  11
 NEO root     CSF        orbital          total
    2     0.02244835     0.00980987     0.02449820 converged

 (NEONEX) NEO vector is converged.

   --- OUTPUT FROM SIRCNO     Keyword = FD+NO 


 Occupations of CAS natural orbitals:

 Symmetry  1 ( irrep A1  in C2v )

   1.962454264

 Symmetry  2 ( irrep B1  in C2v )

   0.037552120

 Symmetry  3 ( irrep B2  in C2v )

   1.999990714   1.998062979

 Symmetry  4 ( irrep A2  in C2v )

   1.001933222   1.999996577   1.000010125


 --- MACRO ITERATION  3 ---
 --------------------------

 2-el. integral transformation level 3: Total CPU and WALL times (sec)      99.734      99.778

 Fock matrix screening setting for this macro iteration: 10^( -9)

 Total MCSCF energy       :          -433.676199820991883  (MACRO    3)

 - Nuclear repulsion      :           414.423788928442832
 - Inactive energy        :          -832.620270469251295
 - Active energy          :           -15.479718280183427

 Norm of total gradient   :             0.141873406744
 -    of CI gradient      :             0.046030581978
 -    of orbital gradient :             0.134198543449
      Virial theorem: -V/T =      1.986016
@    MULPOP   C       2.21; C   _1 -0.18; C   _2 -0.18; C   _1  0.48; C   _2  0.48; C       0.35; N       1.56; O   _1 -1.02; O   _2 -1.02; H   _1 -0.61; 
@             H   _2 -0.61; H   _1 -0.51; H   _2 -0.51; H      -0.46; 

 Residual norm when dim(red L) =   5
 NEO root     CSF        orbital          total
    1     0.05241789     0.03754022     0.06447405 converged

 (NEONEX) NEO auxiliary root no.  1 is converged.

 (SIRNEO) iteration (  3,  4)
 Micro iteration termination criterion met, EVAL(ISTATE+1) = -1.47D-02

   --- OUTPUT FROM SIRCNO     Keyword = FD+NO 


 Occupations of CAS natural orbitals:

 Symmetry  1 ( irrep A1  in C2v )

   1.956441387

 Symmetry  2 ( irrep B1  in C2v )

   0.043568354

 Symmetry  3 ( irrep B2  in C2v )

   1.993662541   1.999986380

 Symmetry  4 ( irrep A2  in C2v )

   1.006335763   1.999999712   1.000005862


 --- MACRO ITERATION  4 ---
 --------------------------

 2-el. integral transformation level 3: Total CPU and WALL times (sec)      99.750      99.810

 Fock matrix screening setting for this macro iteration: 10^( -9)

 Total MCSCF energy       :          -433.685977208356178  (MACRO    4)

 - Nuclear repulsion      :           414.423788928442832
 - Inactive energy        :          -832.337970982748402
 - Active energy          :           -15.771795154050597

 Norm of total gradient   :             0.156214477382
 -    of CI gradient      :             0.072503871990
 -    of orbital gradient :             0.138369619101
      Virial theorem: -V/T =      1.983054
@    MULPOP   C       2.33; C   _1 -0.10; C   _2 -0.10; C   _1  0.51; C   _2  0.51; C       0.38; N       1.43; O   _1 -1.13; O   _2 -1.13; H   _1 -0.62; 
@             H   _2 -0.62; H   _1 -0.50; H   _2 -0.50; H      -0.46; 

 Residual norm when dim(red L) =   6
 NEO root     CSF        orbital          total
    1     0.07141818     0.06310456     0.09530342 converged

 (NEONEX) NEO auxiliary root no.  1 is converged.

 Residual norm when dim(red L) =  13
 NEO root     CSF        orbital          total
    2     0.01846112     0.01252468     0.02230876 converged

 (NEONEX) NEO vector is converged.

   --- OUTPUT FROM SIRCNO     Keyword = FD+NO 


 Occupations of CAS natural orbitals:

 Symmetry  1 ( irrep A1  in C2v )

   1.940518512

 Symmetry  2 ( irrep B1  in C2v )

   0.059616138

 Symmetry  3 ( irrep B2  in C2v )

   1.970083671   1.999989776

 Symmetry  4 ( irrep A2  in C2v )

   1.029783352   1.999996928   1.000011624


 --- MACRO ITERATION  5 ---
 --------------------------

 2-el. integral transformation level 3: Total CPU and WALL times (sec)      99.656      99.739

 Fock matrix screening setting for this macro iteration: 10^( -9)

 Total MCSCF energy       :          -433.706538373651824  (MACRO    5)

 - Nuclear repulsion      :           414.423788928442832
 - Inactive energy        :          -830.545164162754531
 - Active energy          :           -17.585163139340146

 Norm of total gradient   :             0.162106479069
 -    of CI gradient      :             0.120744077174
 -    of orbital gradient :             0.108163664802
      Virial theorem: -V/T =      1.980908
@    MULPOP   C       2.19; C   _1 -0.08; C   _2 -0.08; C   _1  0.81; C   _2  0.81; C       0.77; N       0.56; O   _1 -1.15; O   _2 -1.15; H   _1 -0.61; 
@             H   _2 -0.61; H   _1 -0.50; H   _2 -0.50; H      -0.46; 

 Residual norm when dim(red L) =  10
 NEO root     CSF        orbital          total
    1     0.02394055     0.03270922     0.04053447 converged

 (NEONEX) NEO auxiliary root no.  1 is converged.

 Residual norm when dim(red L) =  12
 NEO root     CSF        orbital          total
    2     0.00777254     0.00538214     0.00945409 converged

 (NEONEX) NEO vector is converged.

   --- OUTPUT FROM SIRCNO     Keyword = FD+NO 


 Occupations of CAS natural orbitals:

 Symmetry  1 ( irrep A1  in C2v )

   1.944795703

 Symmetry  2 ( irrep B1  in C2v )

   0.057012122

 Symmetry  3 ( irrep B2  in C2v )

   1.961461457   1.999976484

 Symmetry  4 ( irrep A2  in C2v )

   1.036736793   1.999994547   1.000022892


 --- MACRO ITERATION  6 ---
 --------------------------

 2-el. integral transformation level 3: Total CPU and WALL times (sec)      99.531      99.607

 Fock matrix screening setting for this macro iteration: 10^( -9)

 Total MCSCF energy       :          -433.718486131516329  (MACRO    6)

 - Nuclear repulsion      :           414.423788928442832
 - Inactive energy        :          -829.608148454433604
 - Active energy          :           -18.534126605525529

 Norm of total gradient   :             0.082248711329
 -    of CI gradient      :             0.079309205533
 -    of orbital gradient :             0.021792210374
      Virial theorem: -V/T =      1.978822
@    MULPOP   C       2.04; C   _1 -0.10; C   _2 -0.10; C   _1  0.98; C   _2  0.98; C       1.15; N       0.31; O   _1 -1.31; O   _2 -1.31; H   _1 -0.60; 
@             H   _2 -0.60; H   _1 -0.50; H   _2 -0.50; H      -0.45; 

 Residual norm when dim(red L) =   8
 NEO root     CSF        orbital          total
    1     0.03034287     0.08463253     0.08990748 converged

 (NEONEX) NEO auxiliary root no.  1 is converged.

 Residual norm when dim(red L) =  24
 NEO root     CSF        orbital          total
    2     0.00418179     0.00302910     0.00516361 converged

 (NEONEX) NEO vector is converged.

   --- OUTPUT FROM SIRCNO     Keyword = FD+NO 


 Occupations of CAS natural orbitals:

 Symmetry  1 ( irrep A1  in C2v )

   1.952305327

 Symmetry  2 ( irrep B1  in C2v )

   0.048811555

 Symmetry  3 ( irrep B2  in C2v )

   1.972376527   1.999976349

 Symmetry  4 ( irrep A2  in C2v )

   1.026510980   1.999998586   1.000020676


 --- MACRO ITERATION  7 ---
 --------------------------

 2-el. integral transformation level 3: Total CPU and WALL times (sec)     100.125     100.186

 Fock matrix screening setting for this macro iteration: 10^( -9)

 Total MCSCF energy       :          -433.719915535347468  (MACRO    7)

 - Nuclear repulsion      :           414.423788928442832
 - Inactive energy        :          -829.797986607412440
 - Active energy          :           -18.345717856377831

 Norm of total gradient   :             0.006398870422
 -    of CI gradient      :             0.005109475021
 -    of orbital gradient :             0.003852117299
      Virial theorem: -V/T =      1.978785
@    MULPOP   C       2.08; C   _1  0.01; C   _2  0.01; C   _1  0.94; C   _2  0.94; C       0.97; N       0.32; O   _1 -1.31; O   _2 -1.31; H   _1 -0.60; 
@             H   _2 -0.60; H   _1 -0.50; H   _2 -0.50; H      -0.45; 

 Residual norm when dim(red L) =   6
 NEO root     CSF        orbital          total
    1     0.01181896     0.07431396     0.07524794 converged

 (NEONEX) NEO auxiliary root no.  1 is converged.

 (SIRNEO) iteration (  7, 24)
 maximum number of microiterations reached

   --- OUTPUT FROM SIRCNO     Keyword = FD+NO 


 Occupations of CAS natural orbitals:

 Symmetry  1 ( irrep A1  in C2v )

   1.952506252

 Symmetry  2 ( irrep B1  in C2v )

   0.048546112

 Symmetry  3 ( irrep B2  in C2v )

   1.972684145   1.999974882

 Symmetry  4 ( irrep A2  in C2v )

   1.026271724   1.999997179   1.000019707


 --- MACRO ITERATION  8 ---
 --------------------------

 2-el. integral transformation level 3: Total CPU and WALL times (sec)     100.172     100.199

 Fock matrix screening setting for this macro iteration: 10^( -9)

 Total MCSCF energy       :          -433.716883773741813  (MACRO    8)

 - Nuclear repulsion      :           414.423788928442832
 - Inactive energy        :          -828.397066872623327
 - Active energy          :           -19.743605829561339

 Norm of total gradient   :             0.193444440584
 -    of CI gradient      :             0.010098870991
 -    of orbital gradient :             0.193180652234
      Virial theorem: -V/T =      1.979487
@    MULPOP   C       1.95; C   _1 -0.12; C   _2 -0.12; C   _1  1.02; C   _2  1.02; C       1.07; N       0.42; O   _1 -1.31; O   _2 -1.31; H   _1 -0.60; 
@             H   _2 -0.60; H   _1 -0.49; H   _2 -0.49; H      -0.45; 

 Residual norm when dim(red L) =   9
 NEO root     CSF        orbital          total
    1     0.03804512     0.04914944     0.06215383 converged

 (NEONEX) NEO auxiliary root no.  1 is converged.

 (ORTBVC) new orbital b-vector no.  1
 is removed because of linear dependence;
 norm of vector after Gram-Schmidt's orthogonalization 5.56227D-16

 (ORTBVC) NBOSIM reduced from  1 to  0

 (SIRNEO) iteration (  8, 21)
 microiterations stopped because of linear dependence

   --- OUTPUT FROM SIRCNO     Keyword = FD+NO 


 Occupations of CAS natural orbitals:

 Symmetry  1 ( irrep A1  in C2v )

   1.952826570

 Symmetry  2 ( irrep B1  in C2v )

   0.048349733

 Symmetry  3 ( irrep B2  in C2v )

   1.972564564   1.999985139

 Symmetry  4 ( irrep A2  in C2v )

   1.026272023   1.999997579   1.000004391


 --- MACRO ITERATION  9 ---
 --------------------------

 2-el. integral transformation level 3: Total CPU and WALL times (sec)     100.375     100.419

 Fock matrix screening setting for this macro iteration: 10^( -9)

 Total MCSCF energy       :          -433.716488829448394  (MACRO    9)

 - Nuclear repulsion      :           414.423788928442832
 - Inactive energy        :          -827.789249220772717
 - Active energy          :           -20.351028537118491

 Norm of total gradient   :             0.201117236822
 -    of CI gradient      :             0.010106603335
 -    of orbital gradient :             0.200863136279
      Virial theorem: -V/T =      1.979636
@    MULPOP   C       2.49; C   _1  0.08; C   _2  0.08; C   _1  0.75; C   _2  0.75; C       0.74; N       0.28; O   _1 -1.29; O   _2 -1.29; H   _1 -0.60; 
@             H   _2 -0.60; H   _1 -0.47; H   _2 -0.47; H      -0.46; 

 Residual norm when dim(red L) =  13
 NEO root     CSF        orbital          total
    1     0.03062825     0.03491266     0.04644333 converged

 (NEONEX) NEO auxiliary root no.  1 is converged.

 (ORTBVC) new orbital b-vector no.  1
 is removed because of linear dependence;
 norm of vector after Gram-Schmidt's orthogonalization 3.36015D-15

 (ORTBVC) NBOSIM reduced from  1 to  0

 (SIRNEO) iteration (  9, 13)
 microiterations stopped because of linear dependence

   --- OUTPUT FROM SIRCNO     Keyword = FD+NO 


 Occupations of CAS natural orbitals:

 Symmetry  1 ( irrep A1  in C2v )

   1.951940968

 Symmetry  2 ( irrep B1  in C2v )

   0.049048929

 Symmetry  3 ( irrep B2  in C2v )

   1.972720349   1.999982110

 Symmetry  4 ( irrep A2  in C2v )

   1.026303999   1.999994464   1.000009180


 --- MACRO ITERATION 10 ---
 --------------------------

 2-el. integral transformation level 3: Total CPU and WALL times (sec)     101.078     101.120

 Fock matrix screening setting for this macro iteration: 10^( -9)

[...]
  85 H   :1s     0.0075  -0.0041  -0.0195   0.0134  -0.4857   6.4546   2.7482
  86 H   :2px   -0.0026  -0.0102  -0.0061   0.0002  -0.0012  -0.0064   0.0016
  88 H   :2px   -0.0008  -0.0078  -0.0593   0.0028   0.0461   0.0665  -0.0536
  89 H   :2pz   -0.0270  -0.0163  -0.0240  -0.0045  -0.0097  -0.0010   0.0126
  91 H   :2px   -0.0087   0.0053   0.0162   0.0122   0.0580  -0.1280  -0.0263

    Orbital        15       16       17       18       19       20       21
   1 C   :2px   -0.0007   0.0375  -0.0142   0.0190  -0.0444   0.0556  -0.0030
   2 C   :2px   -1.5843   1.0870   2.5219   2.0769   3.2594  -0.4721 -11.5875
   4 C   :2px   39.2255 -14.1623 -15.3706  -3.9530   5.3326  16.5206 123.7248
   5 C   :3d1+  -0.0013   0.0003  -0.0181  -0.0112  -0.0082  -0.0475   0.0125
   6 C   :3d1+   1.2883   0.2647  -0.7755  -0.6847  -1.3580   1.2492   2.9335
   7 C   :1s    -0.0233  -0.0151  -0.0079   0.0012  -0.0008  -0.0109  -0.0045
   8 C   :1s    -0.0249   0.0137  -0.0131   0.0102  -0.0567  -0.1837  -0.0118
   9 C   :1s     0.3708   1.2403   1.9476   0.9455   1.1845  -0.1914   2.3335
  11 C   :1s    39.0330   6.2597 -14.5420 -11.4472   5.1371  17.2560   3.6145
  12 C   :2px   -0.0601  -0.0581  -0.0733  -0.0645   0.0213  -0.1151   0.0154
  13 C   :2pz    0.0322   0.0275   0.0602   0.0230  -0.0201  -0.0939   0.0292
  14 C   :2px   -1.6535  -0.0080   1.9226   1.7638   1.8044  -1.2323  -5.0503
  15 C   :2pz   -1.2739  -0.7316   0.0518   0.6049   3.0223  -0.7623 -10.8401
  18 C   :2px   12.4397   3.7209  -4.1388   2.4607  -9.9629   9.7599  59.2446
  19 C   :2pz   13.3011 -13.2699 -13.0978   4.3296  -8.7832   4.1694  98.8730
  20 C   :3d0    0.0006  -0.0055   0.0058  -0.0006   0.0036   0.0191   0.0091
  21 C   :3d1+   0.0037  -0.0104   0.0057   0.0082   0.0125  -0.0074  -0.0049
  22 C   :3d2+  -0.0049   0.0069   0.0117   0.0027  -0.0004  -0.0040   0.0008
  23 C   :3d0    0.8590   0.4380  -0.1676  -0.1482  -1.3935   0.6336   3.0608
  24 C   :3d1+  -0.2566   0.8979   0.3790   0.1008   0.0550   0.4408  -2.0182
  25 C   :3d2+  -0.1297  -0.1646  -0.0059   0.0142   0.7032  -0.1976  -1.8489
  26 C   :1s    -0.0051   0.0155  -0.0019  -0.0166  -0.0193   0.0064  -0.0127
  27 C   :1s    -0.0159  -0.0081   0.0099   0.0051  -0.0406   0.0919  -0.0592
  28 C   :1s     0.0679   0.0377   0.6202   1.9104   3.9856  -0.2794   1.7918
  30 C   :1s     0.5138 -29.5408   0.2405  11.2921 -15.9860 -13.9150  -7.4554
  31 C   :2px   -0.0246   0.0155  -0.0177  -0.1117  -0.0688   0.0138  -0.0090
  32 C   :2pz   -0.0164  -0.0004  -0.0443  -0.0371  -0.0137   0.0890   0.0035
  33 C   :2px    1.2057   1.8515   0.5832   1.5216   0.6735   1.0365   7.5292
  34 C   :2pz   -2.1124  -0.9575  -0.5644  -0.4407   2.2352  -0.9866 -11.4647
  37 C   :2px   -5.7679  -3.7889   5.3674   4.3872   9.7711  -8.9864 -59.4954
  38 C   :2pz    5.3615  -5.4094  -2.8505   5.0226   1.1347   5.9157 105.6240
  39 C   :3d0   -0.0040   0.0049  -0.0075  -0.0025   0.0056  -0.0020  -0.0116
  40 C   :3d1+  -0.0084  -0.0089  -0.0031  -0.0017   0.0017  -0.0101  -0.0106
  41 C   :3d2+  -0.0018   0.0033   0.0037   0.0093   0.0110  -0.0016   0.0062
  42 C   :3d0   -0.4626  -0.5338  -0.2107   0.1173   0.4465  -0.4828  -3.7605
  43 C   :3d1+  -0.2014   0.4049  -0.4243  -0.7917  -0.5048   0.2976  -2.4335
  44 C   :3d2+   0.3843   0.0101   0.1049   0.0501  -0.3438   0.1713   2.1881
  45 C   :2px   -0.0176  -0.0048  -0.0360   0.0315   0.0254  -0.0018  -0.0064
  46 C   :2px    2.4148   1.0494   1.3341   3.0770   0.9573   0.6351  14.3991
  48 C   :2px   -6.6777  -5.3201   7.9885  -0.7490  -8.8371 -11.3165-124.3094
  49 C   :3d1+   0.0076   0.0070   0.0053   0.0181   0.0026  -0.0066   0.0160
  50 C   :3d1+   0.7984   1.0628   0.0665   0.5399   0.6374   0.6055   5.3620
  51 N   :2px    0.0076   0.0463  -0.0552   0.0156  -0.1053  -0.4228   0.0751
  52 N   :2px   -0.2358  -0.1991  -0.0285   0.2062   0.1936  -0.2178  -0.1755
  54 N   :2px   -5.3740   1.4002  -4.7587   4.1853  -7.1479  -3.4930   0.7376
  55 N   :3d1+  -0.0158  -0.0129  -0.0079   0.0112   0.0020   0.0586  -0.0012
  56 N   :3d1+   0.1138  -0.0558   0.0126   0.0874   0.1610   0.4160  -0.2517
  57 O   :1s    -0.0074  -0.0038  -0.0072   0.0093  -0.0022   0.0195  -0.0039
  58 O   :1s    -0.0530  -0.0542  -0.0116   0.0332   0.0371   0.2862  -0.0484
  59 O   :1s     0.0981   0.0251   0.2078  -0.2484   0.1167  -0.0985   0.0974
  61 O   :1s     2.9997   0.5684   3.2752  -4.0716   4.0955  -3.5948   1.1366
  62 O   :2px    0.0025   0.0012  -0.0047  -0.0133  -0.0146  -0.1212   0.0343
  63 O   :2pz    0.0460   0.0645   0.0283  -0.0396  -0.0417  -0.3658   0.0214
  64 O   :2px   -0.1881   0.0088  -0.2975   0.2254  -0.3017   0.1235   0.0817
  65 O   :2pz   -0.0242  -0.0632  -0.0147   0.1016   0.0634   0.0883  -0.1297
  68 O   :2px   -0.1325  -0.4914   0.4298   0.4671  -0.0253   1.7791  -1.5461
  69 O   :2pz   -0.9909   0.1058  -1.8743   1.3031  -1.5283   0.3180   1.4107
  73 O   :3d0   -0.0080   0.0273  -0.0119  -0.0022  -0.0520  -0.0456   0.0198
  74 O   :3d1+   0.0066   0.0092   0.0081  -0.0197  -0.0071  -0.0355   0.0053
  75 O   :3d2+   0.0434  -0.0025   0.0607  -0.0424   0.0705  -0.0418  -0.0212
  76 H   :1s     0.0327   0.0437   0.0397   0.0235  -0.0523  -0.0395   0.0120
  77 H   :1s    -2.1178   2.0228   2.3398   1.5956  -1.7061   0.1029   0.7547
  78 H   :1s     6.2145   5.4683   0.4924   0.1922  -2.1330   4.9120   0.5172
  81 H   :2px   -0.5416   0.2238   0.3511   0.2263  -0.0717  -0.0737  -0.3668
  82 H   :2pz    0.0344  -0.1316  -0.1868  -0.2714   0.5193   0.0842  -0.8090
  83 H   :1s     0.0136  -0.0240   0.0035   0.0688   0.0235  -0.0490  -0.0142
  84 H   :1s    -0.7880   1.1669   0.6533   1.9526   2.7295  -0.2075   0.3385
  85 H   :1s     0.0821  -6.0281   1.7280   5.3446   2.6051  -3.5313   0.0052
  88 H   :2px   -0.1171   0.2086   0.1907   0.2224   0.2386   0.0797   0.6530
  89 H   :2pz   -0.1949   0.2762  -0.1748   0.2292   0.1363  -0.0702  -1.0627
  91 H   :2px    0.1477   0.4174  -0.3277   0.0201   0.4419   0.1712   1.3372

 Molecular orbitals for symmetry species 3  (B2 )
 ------------------------------------------------

    Orbital         1        2        3        4        5        6        7
   1 C   :2py   -0.1441  -0.0656  -0.0226   0.6161  -0.1542  -0.3409   0.1961
   2 C   :2py   -0.0429   0.0384  -0.0175  -0.0636  -0.0557  -0.1059   0.0644
   4 C   :2py   -0.0281   0.0450   0.0221  -0.0360   0.0966  -4.2632  -1.1578
   5 C   :3d1-   0.0355   0.0060  -0.0154  -0.0063  -0.0048  -0.0034   0.0041
   6 C   :3d1-  -0.0831   0.0216   0.0241  -0.0697  -0.2462  -0.0485  -0.0449
   7 C   :2py   -0.1782  -0.1613   0.0360   0.3324  -0.0421   0.1297  -0.0996
   8 C   :2py   -0.0325   0.0371   0.0339  -0.0321  -0.1854   0.0188  -0.0908
  10 C   :2py   -0.0282  -0.0024  -0.0039   0.0568   0.9163   2.3483   0.3191
  11 C   :3d2-  -0.0068  -0.0039  -0.0001   0.0231  -0.0054  -0.0201   0.0086
  12 C   :3d1-  -0.0036   0.0151   0.0004   0.0160   0.0006  -0.0153   0.0076
  13 C   :3d2-  -0.0237   0.0067   0.0172  -0.0170  -0.1401  -0.0342  -0.0272
  14 C   :3d1-   0.0204  -0.0086  -0.0184   0.0335   0.0851   0.0291   0.0583
  15 C   :2py   -0.0059  -0.4014  -0.0034  -0.0821  -0.0137   0.0932  -0.1620
  16 C   :2py    0.0329   0.0087  -0.0289   0.0050   0.0879   0.0344  -0.0704
  18 C   :2py    0.0246  -0.0178   0.0037  -0.0418  -0.8357   0.1138  -0.1742
  19 C   :3d2-   0.0024  -0.0204  -0.0010  -0.0084  -0.0004  -0.0184   0.0040
  20 C   :3d1-  -0.0085   0.0033   0.0020   0.0184   0.0040   0.0169  -0.0135
  21 C   :3d2-  -0.0019  -0.0041  -0.0078  -0.0011   0.0697   0.0201  -0.0015
  22 C   :3d1-   0.0049   0.0002  -0.0104   0.0083   0.0271  -0.0018   0.0346
  23 C   :2py    0.0714  -0.5032  -0.0279  -0.2350  -0.0060  -0.2872   0.0302
  24 C   :2py    0.0107   0.0258   0.0085  -0.0133  -0.1130  -0.1495  -0.0960
  26 C   :2py    0.0008  -0.0212  -0.0116   0.0014   0.6145  -0.7179   1.5684
  27 C   :3d1-   0.0002  -0.0195  -0.0003  -0.0036   0.0034   0.0065  -0.0131
  28 C   :3d1-  -0.0052  -0.0004   0.0113  -0.0082  -0.0947  -0.0167  -0.0407
  29 N   :2py    0.9553  -0.0697  -0.2340   0.2356  -0.0598   0.1330  -0.0779
  30 N   :2py    0.0296  -0.0022  -0.1633  -0.0234  -0.0395   0.0650  -0.0129
  32 N   :2py    0.1307  -0.0335  -0.0349   0.0223  -0.3407   1.4684   0.7899
  33 N   :3d1-   0.0307  -0.0021   0.0284  -0.0065   0.0012   0.0167  -0.0064
  34 N   :3d1-  -0.0548   0.0150  -0.0533  -0.0697  -0.1865   0.0335  -0.0125
  35 O   :2py    0.0568  -0.0099   0.6894   0.0106  -0.1025   0.0182   0.0405
  36 O   :2py   -0.0430  -0.0010   0.0030   0.0133   0.0006   0.0111   0.0285
  38 O   :2py   -0.0550   0.0078   0.0203  -0.0010   0.4639  -0.4524  -0.2583
  39 O   :3d2-  -0.0110   0.0009  -0.0291  -0.0013   0.0114  -0.0047  -0.0016
  40 O   :3d1-  -0.0207   0.0015   0.0011  -0.0037   0.0082  -0.0077   0.0001
  41 O   :3d2-  -0.0088   0.0018  -0.0261  -0.0053  -0.0179   0.0048   0.0006
  42 O   :3d1-  -0.0266   0.0039  -0.0130  -0.0106  -0.0399   0.0032   0.0091
  43 H   :2py   -0.0048  -0.0038   0.0014   0.0081   0.0036   0.0124  -0.0020
  44 H   :2py   -0.0180   0.0067   0.0116  -0.0115  -0.1124  -0.0737  -0.0565
  45 H   :2py   -0.0002  -0.0102  -0.0002  -0.0026  -0.0007   0.0093   0.0032
  46 H   :2py   -0.0031  -0.0043  -0.0034  -0.0052   0.0657  -0.0165  -0.0382
  47 H   :2py    0.0020  -0.0125  -0.0006  -0.0062  -0.0010  -0.0105   0.0158
  48 H   :2py   -0.0015  -0.0041   0.0039  -0.0092  -0.0406  -0.0092  -0.0804

    Orbital         8        9       10       11       12       13       14
   1 C   :2py    0.1059  -0.0292  -0.3966   0.0788   0.3763   0.1201   0.1392
   2 C   :2py    0.1693   0.1466  -0.0512   0.1491   0.7179   0.3578  -0.7285
   4 C   :2py   -7.8293  -7.7449   2.3005   2.8005  -4.2406   4.8425   4.5716
   5 C   :3d1-   0.0056   0.0032  -0.0107  -0.0163   0.0161   0.0031   0.0203
   6 C   :3d1-  -0.1399  -0.1887  -0.0050   0.6254  -0.4208   0.4736   1.1881
   7 C   :2py   -0.0645   0.0924   0.2153  -0.0203  -0.3066  -0.0324  -0.2338
   8 C   :2py   -0.1375  -0.0272  -0.0243   0.2220  -0.5072   0.1170  -0.1866
  10 C   :2py    6.7638   4.2422   0.0102   1.0135   3.5278  -1.6521  -2.6787
  11 C   :3d2-   0.0020  -0.0099  -0.0105   0.0039   0.0269  -0.0030  -0.0314
  12 C   :3d1-   0.0125  -0.0032  -0.0116  -0.0097  -0.0142   0.0129   0.0247
  13 C   :3d2-  -0.1433  -0.0876  -0.0613   0.2215  -0.3982  -0.0655   0.9686
  14 C   :3d1-   0.0925   0.0849  -0.0134  -0.0905   0.1352  -0.2116  -0.2112
  15 C   :2py   -0.1059   0.0295   0.1128  -0.0182   0.3410  -0.0231   0.0665
  16 C   :2py    0.1510   0.1077   0.0659  -0.1399   0.4966  -0.4497  -0.1243
  18 C   :2py   -5.9078  -2.7019  -3.1401  -1.8949  -3.2964  -0.0386   0.5336
  19 C   :3d2-   0.0081  -0.0086  -0.0056   0.0037  -0.0232  -0.0311   0.0078
  20 C   :3d1-  -0.0073  -0.0002   0.0122   0.0003  -0.0076  -0.0162  -0.0297
  21 C   :3d2-   0.2119   0.1030  -0.0046  -0.0476   0.3484   0.1377  -0.3616
  22 C   :3d1-   0.0556   0.0813   0.1363  -0.0380   0.1662  -0.1516   0.1500
  23 C   :2py    0.2591  -0.0697  -0.3008  -0.0188  -0.3762  -0.0639   0.1005
  24 C   :2py   -0.1171  -0.1645  -0.0353   0.1154  -0.5946  -0.5172   1.1931
  26 C   :2py    5.4398   3.0706   4.5182   1.5134   3.3724  -0.6071   0.5132
  27 C   :3d1-  -0.0049  -0.0050   0.0034   0.0056   0.0237  -0.0398   0.0452
  28 C   :3d1-  -0.2082  -0.1078  -0.0848   0.0280  -0.3485   0.1204  -0.4170
  29 N   :2py   -0.0733   0.0458   0.1278   0.2078  -0.1176   0.0169  -0.1075
  30 N   :2py    0.0396  -0.1142   0.1058   0.0079   0.0335  -0.1188  -0.2595
  32 N   :2py    1.7215   1.8438  -1.0850  -6.2287   1.3021  -3.3220  -2.4008
  33 N   :3d1-  -0.0018  -0.0001   0.0162  -0.0058  -0.0134  -0.0116  -0.0275
  34 N   :3d1-   0.0024  -0.1180   0.0718   0.2210  -0.0807   0.1116   0.1943
  35 O   :2py    0.0670  -0.0984  -0.0103  -0.0242   0.0309   0.0308   0.0313
  36 O   :2py    0.0405  -0.0302  -0.0225  -0.1563   0.0315  -0.0276  -0.0084
  38 O   :2py   -0.5156   0.2982   0.0306   1.7594  -0.2683   0.6384   0.4274
  41 O   :3d2-   0.0084  -0.0143   0.0072   0.0035  -0.0038   0.0025   0.0386
  42 O   :3d1-   0.0118  -0.0278  -0.0008   0.0176   0.0113   0.0133   0.0188
  43 H   :2py    0.0096   0.0031   0.0031   0.0053  -0.0094  -0.0058  -0.0107
  44 H   :2py   -0.2602  -0.0707   0.0828   0.0276  -0.6296   0.3384   1.6070
  45 H   :2py   -0.0110   0.0004  -0.0049  -0.0034   0.0113  -0.0122  -0.0003
  46 H   :2py    0.1977   0.1335   0.1660  -0.0247   0.4966   0.8300  -0.0552
  47 H   :2py    0.0117   0.0046   0.0038   0.0015  -0.0108  -0.0144   0.0118
  48 H   :2py   -0.1532  -0.1199  -0.2983  -0.0806  -0.4728   0.9897  -1.4795

 Molecular orbitals for symmetry species 4  (A2 )
 ------------------------------------------------

    Orbital         1        2        3        4        5        6        7
   1 C   :3d2-  -0.0175  -0.0385   0.0429  -0.0005   0.0041   0.0067   0.0253
   2 C   :3d2-   0.0347  -0.0326   0.0178  -0.1699   0.0677   0.0350  -0.6129
   3 C   :2py    0.1924   0.4227  -0.3588   0.1610  -0.1034  -0.0507  -0.1407
   4 C   :2py    0.0398  -0.0076  -0.1018   0.0035   0.0552  -0.0573  -1.0431
   6 C   :2py    0.0338   0.0639  -0.4341  -1.2076   1.7558   2.4861  -0.7263
   7 C   :3d2-   0.0017   0.0026  -0.0019   0.0085   0.0012  -0.0017  -0.0369
   8 C   :3d1-  -0.0028  -0.0114  -0.0260  -0.0012  -0.0010  -0.0017   0.0251
   9 C   :3d2-   0.0136  -0.0022  -0.0139  -0.0377  -0.0326  -0.0300   0.1792
  10 C   :3d1-   0.0106   0.0136  -0.0440  -0.0385  -0.0503  -0.0097  -0.3903
  11 C   :2py    0.1415   0.3277   0.4868   0.0348   0.1669   0.0478  -0.0595
  12 C   :2py   -0.0079   0.0059   0.1016   0.0483   0.0083  -0.0044  -0.7125
  14 C   :2py   -0.0069  -0.0001   0.4170  -0.1349  -2.4251  -1.9769  -0.2875
  15 C   :3d2-   0.0006   0.0011   0.0027   0.0063   0.0038  -0.0003  -0.0237
  16 C   :3d1-   0.0070   0.0170  -0.0194   0.0039   0.0005   0.0035  -0.0266
  17 C   :3d2-  -0.0038   0.0029   0.0090  -0.0158   0.0304   0.0196   0.0055
  18 C   :3d1-  -0.0050   0.0068  -0.0281   0.0426  -0.0273  -0.0051   0.3058
  19 C   :3d2-  -0.0107  -0.0246  -0.0449   0.0056  -0.0017   0.0016   0.0096
  20 C   :3d2-  -0.0003  -0.0067  -0.0151  -0.0443  -0.1041  -0.0414  -0.4896
  21 N   :3d2-   0.0219  -0.0126   0.0032   0.0020  -0.0035   0.0081  -0.0033
  22 N   :3d2-  -0.0318   0.0030   0.0198   0.0070   0.0210  -0.0691  -0.0087
  23 O   :2py    0.7377  -0.2942  -0.0119  -0.0525   0.0645  -0.1157   0.0137
  24 O   :2py    0.0237  -0.0282  -0.0113  -0.0408   0.0435  -0.0862  -0.0038
  26 O   :2py   -0.0017  -0.0453   0.0424   0.4416  -0.6799   2.0294   0.1480
  29 O   :3d2-  -0.0209   0.0056   0.0027  -0.0045   0.0088  -0.0262  -0.0190
  30 O   :3d1-  -0.0172   0.0088  -0.0000  -0.0002   0.0042  -0.0197   0.0259
  31 H   :2py    0.0052   0.0117  -0.0123  -0.0068   0.0019   0.0066  -0.0134
  32 H   :2py    0.0052   0.0112  -0.0273   0.0935  -0.1207  -0.1232   1.3543
  33 H   :2py    0.0033   0.0085   0.0150  -0.0059  -0.0079  -0.0034  -0.0092
  34 H   :2py   -0.0010   0.0070   0.0205   0.0236   0.1783   0.0823   0.8586

    Orbital         8        9       10       11       12       13
   1 C   :3d2-   0.0238   0.0193  -0.0394  -0.0602  -0.0201  -0.0887
   2 C   :3d2-   0.3377  -0.1221   0.8009   0.8221  -1.2308   2.0594
   3 C   :2py   -0.1536   0.0802   0.2484   0.2713   0.3520   0.3261
   4 C   :2py   -0.1644  -0.1057   1.4520  -0.6457  -1.1166   1.0690
   6 C   :2py   -1.5618  -0.5765   0.4105  -0.0455   0.0542  -0.3702
   7 C   :3d2-  -0.0331  -0.0127  -0.0153  -0.0145  -0.0062  -0.0326
   8 C   :3d1-  -0.0016   0.0072   0.0284  -0.0290   0.0214   0.0256
   9 C   :3d2-   0.8689  -0.1223   0.7224   1.1271   0.7214   2.3523
  10 C   :3d1-  -0.0897  -0.9641  -0.6865   0.2148  -2.0563   0.4454
  11 C   :2py    0.1835  -0.0103  -0.1637   0.3816  -0.1526  -0.2022
  12 C   :2py    0.6995  -0.3697  -1.4442   0.1628  -2.2479   1.9747
  14 C   :2py    1.7501   0.4538  -0.4481   0.0445  -0.1349   0.5651
  15 C   :3d2-   0.0446   0.0052   0.0072  -0.0231   0.0172   0.0113
  16 C   :3d1-   0.0091   0.0108   0.0237   0.0136   0.0368   0.0417
  17 C   :3d2-  -0.7732  -0.1874  -0.1923   1.2064  -0.7615  -2.2443
  18 C   :3d1-  -0.4131  -0.1669  -1.0477   0.3980  -0.0589  -1.2937
  19 C   :3d2-  -0.0339  -0.0007   0.0177  -0.0681   0.0427   0.0211
  20 C   :3d2-   0.0240   0.3802  -0.8156   1.1444  -1.5091   1.3808
  21 N   :3d2-   0.0033   0.0082   0.0147   0.0066  -0.0141   0.0129
  22 N   :3d2-  -0.1601   0.4378   0.2746   0.0514  -0.5987  -0.2178
  23 O   :2py    0.0184  -0.0528  -0.1014  -0.0458   0.1708  -0.0286
  24 O   :2py    0.0668  -0.1251  -0.0413   0.0221   0.1186   0.1397
  26 O   :2py   -0.0385  -0.4868  -0.0669   0.1000   0.1885   0.0248
  28 O   :3d1-   0.0020  -0.0071  -0.0046  -0.0023   0.0124   0.0020
  29 O   :3d2-  -0.0320   0.0394   0.0427  -0.0044  -0.1206  -0.0457
  30 O   :3d1-  -0.0048  -0.0218  -0.0703  -0.0066   0.1710  -0.0773
  31 H   :2py   -0.0105   0.0047   0.0107  -0.0136  -0.0048   0.0032
  32 H   :2py    1.3412   0.5630   0.5560   1.1007   1.2633   1.1813
  33 H   :2py    0.0115   0.0008  -0.0104  -0.0067  -0.0130   0.0214
  34 H   :2py   -1.7490  -0.3055  -0.1627   1.2831  -0.1971  -2.0600

 Printout of CI-coefficients abs greater than 0.10000 for root  2
 *** NOTE: this root is the reference state ***


  Printout of coefficients in interval   0.3162E+00 to  0.1000E+01
  ==============================================================

 Coefficient of determinant        48 is      0.98263589  9.82635892E-01
 alpha-string:  1     3  4  5  6  7
  beta-string:  1     3  4     6


  Printout of coefficients in interval   0.1000E+00 to  0.3162E+00
  ==============================================================

 Coefficient of determinant        38 is     -0.10583597 -1.05835970E-01
 alpha-string:     2  3  4  5  6  7
  beta-string:     2  3  4     6

 Coefficient of determinant        40 is      0.11441850  1.14418498E-01
 alpha-string:     2  3  4  5  6  7
  beta-string:  1        4  5  6

 Norm of printed part of CI vector ..      0.98986614

  Magnitude of CI coefficients
  ============================

  ( Ranges are relative to norm of vector :  1.00E+00 )

  10- 1 to 10- 0         3    0.98986614E+00    0.98986614E+00
  10- 2 to 10- 1         3    0.99774482E-02    0.99984359E+00
  10- 3 to 10- 2         8    0.15515117E-03    0.99999874E+00
  10- 4 to 10- 3         9    0.12092905E-05    0.99999995E+00
  10- 5 to 10- 4        22    0.49891117E-07    0.10000000E+01
  10- 6 to 10- 5         9    0.34517256E-09    0.10000000E+01
  10- 7 to 10- 6         2    0.18466245E-12    0.10000000E+01
  Number of coefficients less than 10^-11 times norm is             0

  Total CPU  time used in SIRIUS :   6 hours 13 minutes 35 seconds
  Total wall time used in SIRIUS :   6 hours 13 minutes 50 seconds

 
     Date and time (Linux)  : Sun Dec 22 21:31:48 2019
     Host name              : Lab2-333-NPs                            

 NOTE:    2 warnings have been issued.
 Check output, result, and error files for "WARNING".


                     .---------------------------------------.
                     | End of Wave Function Section (SIRIUS) |
                     `---------------------------------------'


@ - DALTON aborted because wave function not converged!

  --- SEVERE ERROR, PROGRAM WILL BE ABORTED ---
     Date and time (Linux)  : Sun Dec 22 21:31:48 2019
     Host name              : Lab2-333-NPs                            

 Reason: DALTON aborted because wave function not converged

  Total CPU  time used in DALTON:   6 hours 13 minutes 36 seconds
  Total wall time used in DALTON:   6 hours 13 minutes 51 seconds


 QTRACE dump of internal trace stack

 ========================
      level    module
 ========================
          3    SIRIUS      
          2    DALTON      
          1    DALTON main 
 ========================

