

     ************************************************************************
     *************** Dalton - An Electronic Structure Program ***************
     ************************************************************************

    This is output from DALTON release Dalton2018.1 (2019)
         ( Web site: http://daltonprogram.org )

   ----------------------------------------------------------------------------

    NOTE:
     
    Dalton is an experimental code for the evaluation of molecular
    properties using (MC)SCF, DFT, CI, and CC wave functions.
    The authors accept no responsibility for the performance of
    the code or for the correctness of the results.
     
    The code (in whole or part) is provided under a licence and
    is not to be reproduced for further distribution without
    the written permission of the authors or their representatives.
     
    See the home page "http://daltonprogram.org" for further information.
     
    If results obtained with this code are published,
    the appropriate citations would be both of:
     
       K. Aidas, C. Angeli, K. L. Bak, V. Bakken, R. Bast,
       L. Boman, O. Christiansen, R. Cimiraglia, S. Coriani,
       P. Dahle, E. K. Dalskov, U. Ekstroem,
       T. Enevoldsen, J. J. Eriksen, P. Ettenhuber, B. Fernandez,
       L. Ferrighi, H. Fliegl, L. Frediani, K. Hald, A. Halkier,
       C. Haettig, H. Heiberg, T. Helgaker, A. C. Hennum,
       H. Hettema, E. Hjertenaes, S. Hoest, I.-M. Hoeyvik,
       M. F. Iozzi, B. Jansik, H. J. Aa. Jensen, D. Jonsson,
       P. Joergensen, J. Kauczor, S. Kirpekar,
       T. Kjaergaard, W. Klopper, S. Knecht, R. Kobayashi, H. Koch,
       J. Kongsted, A. Krapp, K. Kristensen, A. Ligabue,
       O. B. Lutnaes, J. I. Melo, K. V. Mikkelsen, R. H. Myhre,
       C. Neiss, C. B. Nielsen, P. Norman, J. Olsen,
       J. M. H. Olsen, A. Osted, M. J. Packer, F. Pawlowski,
       T. B. Pedersen, P. F. Provasi, S. Reine, Z. Rinkevicius,
       T. A. Ruden, K. Ruud, V. Rybkin, P. Salek, C. C. M. Samson,
       A. Sanchez de Meras, T. Saue, S. P. A. Sauer,
       B. Schimmelpfennig, K. Sneskov, A. H. Steindal,
       K. O. Sylvester-Hvid, P. R. Taylor, A. M. Teale,
       E. I. Tellgren, D. P. Tew, A. J. Thorvaldsen, L. Thoegersen,
       O. Vahtras, M. A. Watson, D. J. D. Wilson, M. Ziolkowski
       and H. Agren,
       "The Dalton quantum chemistry program system",
       WIREs Comput. Mol. Sci. 2014, 4:269–284 (doi: 10.1002/wcms.1172)
     
    and
     
       Dalton, a molecular electronic structure program,
       Release Dalton2018.1 (2019), see http://daltonprogram.org
   ----------------------------------------------------------------------------

    Authors in alphabetical order (major contribution(s) in parenthesis):

  Kestutis Aidas,           Vilnius University,           Lithuania   (QM/MM)
  Celestino Angeli,         University of Ferrara,        Italy       (NEVPT2)
  Keld L. Bak,              UNI-C,                        Denmark     (AOSOPPA, non-adiabatic coupling, magnetic properties)
  Vebjoern Bakken,          University of Oslo,           Norway      (DALTON; geometry optimizer, symmetry detection)
  Radovan Bast,             UiT The Arctic U. of Norway,  Norway      (DALTON installation and execution frameworks)
  Pablo Baudin,             University of Valencia,       Spain       (Cholesky excitation energies)
  Linus Boman,              NTNU,                         Norway      (Cholesky decomposition and subsystems)
  Ove Christiansen,         Aarhus University,            Denmark     (CC module)
  Renzo Cimiraglia,         University of Ferrara,        Italy       (NEVPT2)
  Sonia Coriani,            Technical Univ. of Denmark,   Denmark     (CC module, MCD in RESPONS)
  Janusz Cukras,            University of Trieste,        Italy       (MChD in RESPONS)
  Paal Dahle,               University of Oslo,           Norway      (Parallelization)
  Erik K. Dalskov,          UNI-C,                        Denmark     (SOPPA)
  Thomas Enevoldsen,        Univ. of Southern Denmark,    Denmark     (SOPPA)
  Janus J. Eriksen,         Aarhus University,            Denmark     (Polarizable embedding model, TDA)
  Rasmus Faber,             University of Copenhagen,     Denmark     (Vib.avg. NMR with SOPPA, parallel AO-SOPPA)
  Tobias Fahleson,          KTH Stockholm,                Sweden      (Damped cubic response)
  Berta Fernandez,          U. of Santiago de Compostela, Spain       (doublet spin, ESR in RESPONS)
  Lara Ferrighi,            Aarhus University,            Denmark     (PCM Cubic response)
  Heike Fliegl,             University of Oslo,           Norway      (CCSD(R12))
  Luca Frediani,            UiT The Arctic U. of Norway,  Norway      (PCM)
  Bin Gao,                  UiT The Arctic U. of Norway,  Norway      (Gen1Int library)
  Christof Haettig,         Ruhr-University Bochum,       Germany     (CC module)
  Kasper Hald,              Aarhus University,            Denmark     (CC module)
  Asger Halkier,            Aarhus University,            Denmark     (CC module)
  Frederik Beyer Hansen,    University of Copenhagen,     Denmark     (Parallel AO-SOPPA)
  Erik D. Hedegaard,        Univ. of Southern Denmark,    Denmark     (Polarizable embedding model, QM/MM)
  Hanne Heiberg,            University of Oslo,           Norway      (geometry analysis, selected one-electron integrals)
  Trygve Helgaker,          University of Oslo,           Norway      (DALTON; ABACUS, ERI, DFT modules, London, and much more)
  Alf Christian Hennum,     University of Oslo,           Norway      (Parity violation)
  Hinne Hettema,            University of Auckland,       New Zealand (quadratic response in RESPONS; SIRIUS supersymmetry)
  Eirik Hjertenaes,         NTNU,                         Norway      (Cholesky decomposition)
  Pi A. B. Haase,           University of Copenhagen,     Denmark     (Triplet AO-SOPPA)
  Maria Francesca Iozzi,    University of Oslo,           Norway      (RPA)
  Christoph Jacob           TU Braunschweig               Germany     (Frozen density embedding model)
  Brano Jansik              Technical Univ. of Ostrava    Czech Rep.  (DFT cubic response)
  Hans Joergen Aa. Jensen,  Univ. of Southern Denmark,    Denmark     (DALTON; SIRIUS, RESPONS, ABACUS modules, London, and much more)
  Dan Jonsson,              UiT The Arctic U. of Norway,  Norway      (cubic response in RESPONS module)
  Poul Joergensen,          Aarhus University,            Denmark     (RESPONS, ABACUS, and CC modules)
  Maciej Kaminski,          University of Warsaw,         Poland      (CPPh in RESPONS)
  Joanna Kauczor,           Linkoeping University,        Sweden      (Complex polarization propagator (CPP) module)
  Sheela Kirpekar,          Univ. of Southern Denmark,    Denmark     (Mass-velocity & Darwin integrals)
  Wim Klopper,              KIT Karlsruhe,                Germany     (R12 code in CC, SIRIUS, and ABACUS modules)
  Stefan Knecht,            ETH Zurich,                   Switzerland (Parallel CI and MCSCF)
  Rika Kobayashi,           Australian National Univ.,    Australia   (DIIS in CC, London in MCSCF)
  Henrik Koch,              NTNU,                         Norway      (CC module, Cholesky decomposition)
  Jacob Kongsted,           Univ. of Southern Denmark,    Denmark     (Polarizable embedding model, QM/MM)
  Andrea Ligabue,           University of Modena,         Italy       (CTOCD, AOSOPPA)
  Nanna H. List             Univ. of Southern Denmark,    Denmark     (Polarizable embedding model)
  Ola B. Lutnaes,           University of Oslo,           Norway      (DFT Hessian)
  Juan I. Melo,             University of Buenos Aires,   Argentina   (LRESC, Relativistic Effects on NMR Shieldings)
  Kurt V. Mikkelsen,        University of Copenhagen,     Denmark     (MC-SCRF and QM/MM)
  Rolf H. Myhre,            NTNU,                         Norway      (Subsystems and CC3)
  Christian Neiss,          Univ. Erlangen-Nuernberg,     Germany     (CCSD(R12))
  Christian B. Nielsen,     University of Copenhagen,     Denmark     (QM/MM)
  Patrick Norman,           KTH Stockholm,                Sweden      (Cubic response and complex frequency response in RESPONS)
  Jeppe Olsen,              Aarhus University,            Denmark     (SIRIUS CI/density modules)
  Jogvan Magnus H. Olsen,   Univ. of Southern Denmark,    Denmark     (Polarizable embedding model, QM/MM)
  Anders Osted,             Copenhagen University,        Denmark     (QM/MM)
  Martin J. Packer,         University of Sheffield,      UK          (SOPPA)
  Filip Pawlowski,          Kazimierz Wielki University,  Poland      (CC3)
  Morten N. Pedersen,       Univ. of Southern Denmark,    Denmark     (Polarizable embedding model)
  Thomas B. Pedersen,       University of Oslo,           Norway      (Cholesky decomposition)
  Patricio F. Provasi,      University of Northeastern,   Argentina   (Analysis of coupling constants in localized orbitals)
  Zilvinas Rinkevicius,     KTH Stockholm,                Sweden      (open-shell DFT, ESR)
  Elias Rudberg,            KTH Stockholm,                Sweden      (DFT grid and basis info)
  Torgeir A. Ruden,         University of Oslo,           Norway      (Numerical derivatives in ABACUS)
  Kenneth Ruud,             UiT The Arctic U. of Norway,  Norway      (DALTON; ABACUS magnetic properties and much more)
  Pawel Salek,              KTH Stockholm,                Sweden      (DALTON; DFT code)
  Claire C. M. Samson       University of Karlsruhe       Germany     (Boys localization, r12 integrals in ERI)
  Alfredo Sanchez de Meras, University of Valencia,       Spain       (CC module, Cholesky decomposition)
  Trond Saue,               Paul Sabatier University,     France      (direct Fock matrix construction)
  Stephan P. A. Sauer,      University of Copenhagen,     Denmark     (SOPPA(CCSD), SOPPA prop., AOSOPPA, vibrational g-factors)
  Andre S. P. Gomes,        CNRS/Universite de Lille,     France      (Frozen density embedding model)
  Bernd Schimmelpfennig,    Forschungszentrum Karlsruhe,  Germany     (AMFI module)
  Kristian Sneskov,         Aarhus University,            Denmark     (Polarizable embedding model, QM/MM)
  Arnfinn H. Steindal,      UiT The Arctic U. of Norway,  Norway      (parallel QM/MM, Polarizable embedding model)
  Casper Steinmann,         Univ. of Southern Denmark,    Denmark     (QFIT, Polarizable embedding model)
  K. O. Sylvester-Hvid,     University of Copenhagen,     Denmark     (MC-SCRF)
  Peter R. Taylor,          VLSCI/Univ. of Melbourne,     Australia   (Symmetry handling ABACUS, integral transformation)
  Andrew M. Teale,          University of Nottingham,     England     (DFT-AC, DFT-D)
  David P. Tew,             University of Bristol,        England     (CCSD(R12))
  Olav Vahtras,             KTH Stockholm,                Sweden      (triplet response, spin-orbit, ESR, TDDFT, open-shell DFT)
  Lucas Visscher,           Vrije Universiteit Amsterdam, Netherlands (Frozen density embedding model)
  David J. Wilson,          La Trobe University,          Australia   (DFT Hessian and DFT magnetizabilities)
  Hans Agren,               KTH Stockholm,                Sweden      (SIRIUS module, RESPONS, MC-SCRF solvation model)
 --------------------------------------------------------------------------------

     Date and time (Linux)  : Sat Dec 21 00:26:03 2019
     Host name              : Lab2-333-NPs                            

 * Work memory size             :  1024000000 =  7.629 gigabytes.

 * Directories for basis set searches:
   1) /home/lab333/dalton/build_2018_atlas
   2) /home/lab333/dalton/build_2018_atlas/basis


Compilation information
-----------------------

 Who compiled             | lab333
 Host                     | Lab2-333-NPs
 System                   | Linux-4.4.0-43-Microsoft
 CMake generator          | Unix Makefiles
 Processor                | x86_64
 64-bit integers          | OFF
 MPI                      | OFF
 Fortran compiler         | /usr/bin/gfortran
 Fortran compiler version | GNU Fortran (Ubuntu 7.3.0-27ubuntu1~18.04) 7.3.0
 C compiler               | /usr/bin/gcc
 C compiler version       | gcc (Ubuntu 7.3.0-27ubuntu1~18.04) 7.3.0
 C++ compiler             | /usr/bin/g++
 C++ compiler version     | g++ (Ubuntu 7.3.0-27ubuntu1~18.04) 7.3.0
 BLAS                     | /usr/lib/x86_64-linux-gnu/libf77blas.so;/usr/lib/x
                          | 86_64-linux-gnu/libcblas.so;/usr/lib/x86_64-linux-
                          | gnu/libatlas.so
 LAPACK                   | /usr/lib/x86_64-linux-gnu/libatlas.so;/usr/lib/x86
                          | _64-linux-gnu/atlas/liblapack.so
 Static linking           | OFF
 Last Git revision        | da625bf48c74028e805616daee31bc5d76b3a20d
 Git branch               | (HEAD detached at Dalton2018.1)
 Configuration time       | 2019-01-18 10:20:51.437510


   Content of the .dal input file
 ----------------------------------

**DALTON INPUT
.RUN RESPONSE
.DIRECT
**WAVE FUNCTIONS
.HF
.MP2
.MCSCF
*CONFIGURATION INPUT
.SPIN MULTIPLICITY
3
.SYMMETRY
1
.INACTIVE ORBITALS
15 10 2 0
.CAS SPACE
1 1 2 3
.ELECTRONS
10
*ORBITAL INPUT
.MOSTART
.HUCKEL
*OPTIMIZATION
.DETERMINANTS
.STATE
2
*CI VECTOR
.PLUS COMBINATIONS
**RESPONSE
*CUBIC
.DIPLEN
.BFREQ
1
0.0584
.CFREQ
1
-0.0584
.DFREQ
1
0.0584
**END OF DALTON INPUT


   Content of the .mol file
 ----------------------------

BASIS
aug-cc-pCVDZ
 nitrobenzene
 Generated by the Dalton Input File Plugin for Avogadro
Atomtypes=4 Angstrom Generators=2 X Y
Charge=6.0 Atoms=4
C        0.0000000000            0.0000000000           -0.0265759623
C       -1.2190534920            0.0000000000           -0.6979856948
C       -1.2105095870            0.0000000000           -2.0897394457
C        0.0000000000            0.0000000000           -2.7841484631
Charge=7.0 Atoms=1
N        0.0000000000            0.0000000000            1.4549291696
Charge=8.0 Atoms=1
O       0.4849137089925772            0.0            2.579608474431794
Charge=1.0 Atoms=3
H       -2.1410602955            0.0000000000           -0.1327964319
H       -2.1492827751            0.0000000000           -2.6311811056
H        0.0000000000            0.0000000000           -3.8683953478


       *******************************************************************
       *********** Output from DALTON general input processing ***********
       *******************************************************************

 --------------------------------------------------------------------------------
   Overall default print level:    0
   Print level for DALTON.STAT:    1

    AO-direct calculation (in sections where implemented)
    HERMIT 1- and 2-electron integral sections will be executed
    "Old" integral transformation used (limited to max 255 basis functions)
    Wave function sections will be executed (SIRIUS module)
    Dynamic molecular response properties section will be executed (RESPONSE module)
 --------------------------------------------------------------------------------


   ****************************************************************************
   *************** Output of molecule and basis set information ***************
   ****************************************************************************


    The two title cards from your ".mol" input:
    ------------------------------------------------------------------------
 1:  nitrobenzene                                                           
 2:  Generated by the Dalton Input File Plugin for Avogadro                 
    ------------------------------------------------------------------------

  Coordinates are entered in Angstrom and converted to atomic units.
          - Conversion factor : 1 bohr = 0.52917721 A

  Atomic type no.    1
  --------------------
  Nuclear charge:   6.00000
  Number of symmetry independent centers:    4
  Number of basis sets to read;    2
  Basis set file used for this atomic type with Z =   6 :
     "/home/lab333/dalton/build_2018_atlas/basis/aug-cc-pCVDZ"

  Atomic type no.    2
  --------------------
  Nuclear charge:   7.00000
  Number of symmetry independent centers:    1
  Number of basis sets to read;    2
  Basis set file used for this atomic type with Z =   7 :
     "/home/lab333/dalton/build_2018_atlas/basis/aug-cc-pCVDZ"

  Atomic type no.    3
  --------------------
  Nuclear charge:   8.00000
  Number of symmetry independent centers:    1
  Number of basis sets to read;    2
  Basis set file used for this atomic type with Z =   8 :
     "/home/lab333/dalton/build_2018_atlas/basis/aug-cc-pCVDZ"

  Atomic type no.    4
  --------------------
  Nuclear charge:   1.00000
  Number of symmetry independent centers:    3
  Number of basis sets to read;    2
  Basis set file used for this atomic type with Z =   1 :
     "/home/lab333/dalton/build_2018_atlas/basis/aug-cc-pCVDZ"


                         SYMGRP: Point group information
                         -------------------------------

@    Point group: C2v

@  * The irrep name for each symmetry:    1: A1     2: B1     3: B2     4: A2 

   * The point group was generated by:

      Reflection in the yz-plane
      Reflection in the xz-plane

   * Group multiplication table

        |  E   C2z  Oxz  Oyz
   -----+--------------------
     E  |  E   C2z  Oxz  Oyz
    C2z | C2z   E   Oyz  Oxz
    Oxz | Oxz  Oyz   E   C2z
    Oyz | Oyz  Oxz  C2z   E 

   * Character table

        |  E   C2z  Oxz  Oyz
   -----+--------------------
    A1  |   1    1    1    1
    B1  |   1   -1    1   -1
    B2  |   1   -1   -1    1
    A2  |   1    1   -1   -1

   * Direct product table

        | A1   B1   B2   A2 
   -----+--------------------
    A1  | A1   B1   B2   A2 
    B1  | B1   A1   A2   B2 
    B2  | B2   A2   A1   B1 
    A2  | A2   B2   B1   A1 


                                 Isotopic Masses
                                 ---------------

                           C          12.000000
                           C   _1     12.000000
                           C   _2     12.000000
                           C   _1     12.000000
                           C   _2     12.000000
                           C          12.000000
                           N          14.003074
                           O   _1     15.994915
                           O   _2     15.994915
                           H   _1      1.007825
                           H   _2      1.007825
                           H   _1      1.007825
                           H   _2      1.007825
                           H           1.007825

                       Total mass:   123.032029 amu
                       Natural abundance:  92.716 %

 Center-of-mass coordinates (a.u.):    0.000000    0.000000   -0.110731


  Atoms and basis sets
  --------------------

  Number of atom types :    4
  Total number of atoms:   14

  Basis set used is "aug-cc-pCVDZ" from the basis set library.

  label    atoms   charge   prim   cont     basis
  ----------------------------------------------------------------------
  C           6    6.0000    39    27      [11s6p2d|5s4p2d]                                   
  N           1    7.0000    39    27      [11s6p2d|5s4p2d]                                   
  O           2    8.0000    39    27      [11s6p2d|5s4p2d]                                   
  H           5    1.0000    11     9      [5s2p|3s2p]                                        
  ----------------------------------------------------------------------
  total:     14   64.0000   406   288
  ----------------------------------------------------------------------
  Spherical harmonic basis used.

  Threshold for neglecting AO integrals:  1.00D-12


  Symmetry Coordinates
  --------------------

  Number of coordinates in each symmetry:    14   14    9    5


   Interatomic separations (in Angstrom):
   --------------------------------------

            C           C   _1      C   _2      C   _1      C   _2      C     
            ------      ------      ------      ------      ------      ------
 C     :    0.000000
 C   _1:    1.391719    0.000000
 C   _2:    1.391719    2.438107    0.000000
 C   _1:    2.392065    1.391780    2.799956    0.000000
 C   _2:    2.392065    2.799956    1.391780    2.421019    0.000000
 C     :    2.757573    2.416230    2.416230    1.395542    1.395542    0.000000
 N     :    1.481505    2.474093    2.474093    3.745665    3.745665    4.239078
 O   _1:    2.650913    3.694067    3.358807    4.967622    4.725389    5.385632
 O   _2:    2.650913    3.358807    3.694067    4.725389    4.967622    5.385632
 H   _1:    2.143694    1.081451    3.407316    2.166922    3.881063    3.407904
 H   _2:    2.143694    3.407316    1.081451    3.881063    2.166922    3.407904
 H   _1:    3.376890    2.145360    3.883675    1.083722    3.403140    2.154719
 H   _2:    3.376890    3.883675    2.145360    3.403140    1.083722    2.154719
 H     :    3.841819    3.396703    3.396703    2.151500    2.151500    1.084247

            N           O   _1      O   _2      H   _1      H   _2      H   _1
            ------      ------      ------      ------      ------      ------
 N     :    0.000000
 O   _1:    1.224763    0.000000
 O   _2:    1.224763    0.969827    0.000000
 H   _1:    2.665523    3.775299    3.178044    0.000000
 H   _2:    2.665523    3.178044    3.775299    4.282121    0.000000
 H   _1:    4.616894    5.838777    5.470142    2.498398    4.964773    0.000000
 H   _2:    4.616894    5.470142    5.838777    4.964773    2.498398    4.298566
 H     :    5.323325    6.466212    6.466212    4.305675    4.305675    2.479943

            H   _2      H     
            ------      ------
 H   _2:    0.000000
 H     :    2.479943    0.000000


  Max    interatomic separation is    6.4662 Angstrom (   12.2194 Bohr)
  between atoms   14 and    8, "H     " and "O   _1".

  Min HX interatomic separation is    1.0815 Angstrom (    2.0436 Bohr)

  Min YX interatomic separation is    0.9698 Angstrom (    1.8327 Bohr)

@ WARNING: Number of short HX and YX bond lengths:    0    1
@ WARNING: If not intentional, maybe your coordinates were in Angstrom,
@ WARNING: but "Angstrom" was not specified in .mol file


  Bond distances (Angstrom):
  --------------------------

                  atom 1     atom 2       distance
                  ------     ------       --------
  bond distance:  C   _1     C            1.391719
  bond distance:  C   _2     C            1.391719
  bond distance:  C   _1     C   _1       1.391780
  bond distance:  C   _2     C   _2       1.391780
  bond distance:  C          C   _1       1.395542
  bond distance:  C          C   _2       1.395542
  bond distance:  N          C            1.481505
  bond distance:  O   _1     N            1.224763
  bond distance:  O   _2     N            1.224763
  bond distance:  O   _2     O   _1       0.969827
  bond distance:  H   _1     C   _1       1.081451
  bond distance:  H   _2     C   _2       1.081451
  bond distance:  H   _1     C   _1       1.083722
  bond distance:  H   _2     C   _2       1.083722
  bond distance:  H          C            1.084247


  Bond angles (degrees):
  ----------------------

                  atom 1     atom 2     atom 3         angle
                  ------     ------     ------         -----
  bond angle:     C   _1     C          C   _2       122.311
  bond angle:     C   _1     C          N            118.844
  bond angle:     C   _2     C          N            118.844
  bond angle:     C          C   _1     C   _1       118.493
  bond angle:     C          C   _1     H   _1       119.647
  bond angle:     C   _1     C   _1     H   _1       121.860
  bond angle:     C          C   _2     C   _2       118.493
  bond angle:     C          C   _2     H   _2       119.647
  bond angle:     C   _2     C   _2     H   _2       121.860
  bond angle:     C   _1     C   _1     C            120.192
  bond angle:     C   _1     C   _1     H   _1       119.623
  bond angle:     C          C   _1     H   _1       120.185
  bond angle:     C   _2     C   _2     C            120.192
  bond angle:     C   _2     C   _2     H   _2       119.623
  bond angle:     C          C   _2     H   _2       120.185
  bond angle:     C   _1     C          C   _2       120.319
  bond angle:     C   _1     C          H            119.841
  bond angle:     C   _2     C          H            119.841
  bond angle:     C          N          O   _1       156.676
  bond angle:     C          N          O   _2       156.676
  bond angle:     O   _1     N          O   _2        46.647
  bond angle:     N          O   _1     O   _2        66.676
  bond angle:     N          O   _2     O   _1        66.676




 Principal moments of inertia (u*A**2) and principal axes
 --------------------------------------------------------

   IA      96.907474          0.000000    0.000000    1.000000
   IB     480.690662          1.000000    0.000000    0.000000
   IC     577.598136          0.000000    1.000000    0.000000


 Rotational constants
 --------------------

@    The molecule is planar.

               A                   B                   C

           5215.0674           1051.3601            874.9665 MHz
            0.173956            0.035070            0.029186 cm-1


@  Nuclear repulsion energy :  420.492003028797 Hartree


  Symmetry Orbitals
  -----------------

  Number of orbitals in each symmetry:         115   91   48   34


  Symmetry  A1 ( 1)

    1     C        1s         1
    2     C        1s         2
    3     C        1s         3
    4     C        1s         4
    5     C        1s         5
    6     C        2pz        8
    7     C        2pz       11
    8     C        2pz       14
    9     C        2pz       17
   10     C        3d0       20
   11     C        3d2+      22
   12     C        3d0       25
   13     C        3d2+      27
   14     C        1s        28 +   29
   15     C        1s        30 +   31
   16     C        1s        32 +   33
   17     C        1s        34 +   35
   18     C        1s        36 +   37
   19     C        2px       38 -   39
   20     C        2pz       42 +   43
   21     C        2px       44 -   45
   22     C        2pz       48 +   49
   23     C        2px       50 -   51
   24     C        2pz       54 +   55
   25     C        2px       56 -   57
   26     C        2pz       60 +   61
   27     C        3d0       66 +   67
   28     C        3d1+      68 -   69
   29     C        3d2+      70 +   71
   30     C        3d0       76 +   77
   31     C        3d1+      78 -   79
   32     C        3d2+      80 +   81
   33     C        1s        82 +   83
   34     C        1s        84 +   85
   35     C        1s        86 +   87
   36     C        1s        88 +   89
   37     C        1s        90 +   91
   38     C        2px       92 -   93
   39     C        2pz       96 +   97
   40     C        2px       98 -   99
   41     C        2pz      102 +  103
   42     C        2px      104 -  105
   43     C        2pz      108 +  109
   44     C        2px      110 -  111
   45     C        2pz      114 +  115
   46     C        3d0      120 +  121
   47     C        3d1+     122 -  123
   48     C        3d2+     124 +  125
   49     C        3d0      130 +  131
   50     C        3d1+     132 -  133
   51     C        3d2+     134 +  135
   52     C        1s       136
   53     C        1s       137
   54     C        1s       138
   55     C        1s       139
   56     C        1s       140
   57     C        2pz      143
   58     C        2pz      146
   59     C        2pz      149
   60     C        2pz      152
   61     C        3d0      155
   62     C        3d2+     157
   63     C        3d0      160
   64     C        3d2+     162
   65     N        1s       163
   66     N        1s       164
   67     N        1s       165
   68     N        1s       166
   69     N        1s       167
   70     N        2pz      170
   71     N        2pz      173
   72     N        2pz      176
   73     N        2pz      179
   74     N        3d0      182
   75     N        3d2+     184
   76     N        3d0      187
   77     N        3d2+     189
   78     O        1s       190 +  191
   79     O        1s       192 +  193
   80     O        1s       194 +  195
   81     O        1s       196 +  197
   82     O        1s       198 +  199
   83     O        2px      200 -  201
   84     O        2pz      204 +  205
   85     O        2px      206 -  207
   86     O        2pz      210 +  211
   87     O        2px      212 -  213
   88     O        2pz      216 +  217
   89     O        2px      218 -  219
   90     O        2pz      222 +  223
   91     O        3d0      228 +  229
   92     O        3d1+     230 -  231
   93     O        3d2+     232 +  233
   94     O        3d0      238 +  239
   95     O        3d1+     240 -  241
   96     O        3d2+     242 +  243
   97     H        1s       244 +  245
   98     H        1s       246 +  247
   99     H        1s       248 +  249
  100     H        2px      250 -  251
  101     H        2pz      254 +  255
  102     H        2px      256 -  257
  103     H        2pz      260 +  261
  104     H        1s       262 +  263
  105     H        1s       264 +  265
  106     H        1s       266 +  267
  107     H        2px      268 -  269
  108     H        2pz      272 +  273
  109     H        2px      274 -  275
  110     H        2pz      278 +  279
  111     H        1s       280
  112     H        1s       281
  113     H        1s       282
  114     H        2pz      285
  115     H        2pz      288


  Symmetry  B1 ( 2)

  116     C        2px        6
  117     C        2px        9
  118     C        2px       12
  119     C        2px       15
  120     C        3d1+      21
  121     C        3d1+      26
  122     C        1s        28 -   29
  123     C        1s        30 -   31
  124     C        1s        32 -   33
  125     C        1s        34 -   35
  126     C        1s        36 -   37
  127     C        2px       38 +   39
  128     C        2pz       42 -   43
  129     C        2px       44 +   45
  130     C        2pz       48 -   49
  131     C        2px       50 +   51
  132     C        2pz       54 -   55
  133     C        2px       56 +   57
  134     C        2pz       60 -   61
  135     C        3d0       66 -   67
  136     C        3d1+      68 +   69
  137     C        3d2+      70 -   71
  138     C        3d0       76 -   77
  139     C        3d1+      78 +   79
  140     C        3d2+      80 -   81
  141     C        1s        82 -   83
  142     C        1s        84 -   85
  143     C        1s        86 -   87
  144     C        1s        88 -   89
  145     C        1s        90 -   91
  146     C        2px       92 +   93
  147     C        2pz       96 -   97
  148     C        2px       98 +   99
  149     C        2pz      102 -  103
  150     C        2px      104 +  105
  151     C        2pz      108 -  109
  152     C        2px      110 +  111
  153     C        2pz      114 -  115
  154     C        3d0      120 -  121
  155     C        3d1+     122 +  123
  156     C        3d2+     124 -  125
  157     C        3d0      130 -  131
  158     C        3d1+     132 +  133
  159     C        3d2+     134 -  135
  160     C        2px      141
  161     C        2px      144
  162     C        2px      147
  163     C        2px      150
  164     C        3d1+     156
  165     C        3d1+     161
  166     N        2px      168
  167     N        2px      171
  168     N        2px      174
  169     N        2px      177
  170     N        3d1+     183
  171     N        3d1+     188
  172     O        1s       190 -  191
  173     O        1s       192 -  193
  174     O        1s       194 -  195
  175     O        1s       196 -  197
  176     O        1s       198 -  199
  177     O        2px      200 +  201
  178     O        2pz      204 -  205
  179     O        2px      206 +  207
  180     O        2pz      210 -  211
  181     O        2px      212 +  213
  182     O        2pz      216 -  217
  183     O        2px      218 +  219
  184     O        2pz      222 -  223
  185     O        3d0      228 -  229
  186     O        3d1+     230 +  231
  187     O        3d2+     232 -  233
  188     O        3d0      238 -  239
  189     O        3d1+     240 +  241
  190     O        3d2+     242 -  243
  191     H        1s       244 -  245
  192     H        1s       246 -  247
  193     H        1s       248 -  249
  194     H        2px      250 +  251
  195     H        2pz      254 -  255
  196     H        2px      256 +  257
  197     H        2pz      260 -  261
  198     H        1s       262 -  263
  199     H        1s       264 -  265
  200     H        1s       266 -  267
  201     H        2px      268 +  269
  202     H        2pz      272 -  273
  203     H        2px      274 +  275
  204     H        2pz      278 -  279
  205     H        2px      283
  206     H        2px      286


  Symmetry  B2 ( 3)

  207     C        2py        7
  208     C        2py       10
  209     C        2py       13
  210     C        2py       16
  211     C        3d1-      19
  212     C        3d1-      24
  213     C        2py       40 +   41
  214     C        2py       46 +   47
  215     C        2py       52 +   53
  216     C        2py       58 +   59
  217     C        3d2-      62 -   63
  218     C        3d1-      64 +   65
  219     C        3d2-      72 -   73
  220     C        3d1-      74 +   75
  221     C        2py       94 +   95
  222     C        2py      100 +  101
  223     C        2py      106 +  107
  224     C        2py      112 +  113
  225     C        3d2-     116 -  117
  226     C        3d1-     118 +  119
  227     C        3d2-     126 -  127
  228     C        3d1-     128 +  129
  229     C        2py      142
  230     C        2py      145
  231     C        2py      148
  232     C        2py      151
  233     C        3d1-     154
  234     C        3d1-     159
  235     N        2py      169
  236     N        2py      172
  237     N        2py      175
  238     N        2py      178
  239     N        3d1-     181
  240     N        3d1-     186
  241     O        2py      202 +  203
  242     O        2py      208 +  209
  243     O        2py      214 +  215
  244     O        2py      220 +  221
  245     O        3d2-     224 -  225
  246     O        3d1-     226 +  227
  247     O        3d2-     234 -  235
  248     O        3d1-     236 +  237
  249     H        2py      252 +  253
  250     H        2py      258 +  259
  251     H        2py      270 +  271
  252     H        2py      276 +  277
  253     H        2py      284
  254     H        2py      287


  Symmetry  A2 ( 4)

  255     C        3d2-      18
  256     C        3d2-      23
  257     C        2py       40 -   41
  258     C        2py       46 -   47
  259     C        2py       52 -   53
  260     C        2py       58 -   59
  261     C        3d2-      62 +   63
  262     C        3d1-      64 -   65
  263     C        3d2-      72 +   73
  264     C        3d1-      74 -   75
  265     C        2py       94 -   95
  266     C        2py      100 -  101
  267     C        2py      106 -  107
  268     C        2py      112 -  113
  269     C        3d2-     116 +  117
  270     C        3d1-     118 -  119
  271     C        3d2-     126 +  127
  272     C        3d1-     128 -  129
  273     C        3d2-     153
  274     C        3d2-     158
  275     N        3d2-     180
  276     N        3d2-     185
  277     O        2py      202 -  203
  278     O        2py      208 -  209
  279     O        2py      214 -  215
  280     O        2py      220 -  221
  281     O        3d2-     224 +  225
  282     O        3d1-     226 -  227
  283     O        3d2-     234 +  235
  284     O        3d1-     236 -  237
  285     H        2py      252 -  253
  286     H        2py      258 -  259
  287     H        2py      270 -  271
  288     H        2py      276 -  277

  Symmetries of electric field:  B1 (2)  B2 (3)  A1 (1)

  Symmetries of magnetic field:  B2 (3)  B1 (2)  A2 (4)


                     .---------------------------------------.
                     | Starting in Integral Section (HERMIT) |
                     `---------------------------------------'



 ***************************************************************************************
 ****************** Output from **INTEGRALS input processing (HERMIT) ******************
 ***************************************************************************************


 - Using defaults, no **INTEGRALS input found

 Default print level:        1

 Calculation of one-electron Hamiltonian integrals.

 Center of mass  (bohr):      0.000000000000      0.000000000000     -0.110731485320
 Operator center (bohr):      0.000000000000      0.000000000000      0.000000000000
 Gauge origin    (bohr):      0.000000000000      0.000000000000      0.000000000000
 Dipole origin   (bohr):      0.000000000000      0.000000000000      0.000000000000


     ************************************************************************
     ************************** Output from HERINT **************************
     ************************************************************************



                      Nuclear contribution to dipole moments
                      --------------------------------------

                 au               Debye          C m (/(10**-30)

      z    -15.59998941       -39.65121548      -132.26221814


  Time used in GABGEN     is       0.11 seconds
  Total CPU  time used in HERMIT:   0.41 seconds
  Total wall time used in HERMIT:   0.41 seconds


                        .----------------------------------.
                        | End of Integral Section (HERMIT) |
                        `----------------------------------'



                   .--------------------------------------------.
                   | Starting in Wave Function Section (SIRIUS) |
                   `--------------------------------------------'


 *** Output from Huckel module :

     Using EWMO model:          F
     Using EHT  model:          T
     Number of Huckel orbitals each symmetry:   24   17    6    3

 Huckel EHT eigenvalues for symmetry :  1
          -20.754832     -15.706238     -11.414837     -11.394396     -11.376673
          -11.362577      -2.018117      -1.579288      -1.284365      -1.031262
           -0.838821      -0.750563      -0.638896      -0.579707      -0.546489
           -0.440281      -0.315665      -0.237688      -0.219883      -0.213399
           -0.205725      -0.178497      -0.166816      -0.160385

 Huckel EHT eigenvalues for symmetry :  2
          -20.718690     -11.396449     -11.377840      -1.233683      -1.108675
           -0.880837      -0.561114      -0.533193      -0.476194      -0.416013
           -0.336048      -0.284809      -0.213860      -0.202822      -0.176271
           -0.165474      -0.163329

 Huckel EHT eigenvalues for symmetry :  3
           -0.871265      -0.703742      -0.491399      -0.395584      -0.281647
           -0.236537

 Huckel EHT eigenvalues for symmetry :  4
           -0.461096      -0.452269      -0.288960

 **********************************************************************
 *SIRIUS* a direct, restricted step, second order MCSCF program       *
 **********************************************************************

 
     Date and time (Linux)  : Sat Dec 21 00:26:03 2019
     Host name              : Lab2-333-NPs                            

 Title lines from ".mol" input file:
      nitrobenzene                                                           
      Generated by the Dalton Input File Plugin for Avogadro                 

 Print level on unit LUPRI =   2 is   0
 Print level on unit LUW4  =   2 is   5

@    MC-SCF optimization.

@    Multi-configurational response calculation.
@              Type: complete active space calculation (CAS).

@    This is a combination run starting with
@              a restricted, closed shell Hartree-Fock calculation
@              an MP2 calculation

 Fock matrices are calculated directly without use of integrals on disk.

 Initial molecular orbitals are obtained according to
 ".MOSTART EHT   " input option

     Wave function specification
     ============================
@    Wave function type        --- MC-SCF ---
@    Number of closed shell electrons          54
@    Number of electrons in active shells      10
@    Total charge of the molecule               0

@    Spin multiplicity and 2 M_S                3         2
@    Total number of symmetries                 4 (point group: C2v)
@    Reference state symmetry                   1 (irrep name : A1 )

     Orbital specifications
     ======================
@    Abelian symmetry species          All |    1    2    3    4
@                                          |  A1   B1   B2   A2 
                                       --- |  ---  ---  ---  ---
@    Inactive orbitals                  27 |   15   10    2    0
@    Active orbitals                     7 |    1    1    2    3
@    Secondary orbitals                254 |   99   80   44   31
@    Total number of orbitals          288 |  115   91   48   34
@    Number of basis functions         288 |  115   91   48   34

      ** Automatic occupation of RHF orbitals **

      -- Initial occupation of symmetries is determined from extended Huckel guess.           
      -- Initial occupation of symmetries is :
@    Occupied SCF orbitals              32 |   16   10    4    2

     Optimization information
     ========================
@    Number of determinants                  56
@    Number of orbital rotations           2762
     ------------------------------------------
@    Total number of variables             2818

     Maximum number of macro iterations      40
     Maximum number of micro iterations     960
     Threshold for MCSCF gradient      1.00D-05
     Number of initial trial vectors          2
     Number of initial CI iterations          3
     Number of simultaneous trial vectors     2

@    This calculation converges to state no.   2 for the specified symmetry and spin species.

     Maximum number of NEO/NR iterations  24

    INFORMATION: Switched to "new" integral transformation (from 1988 ;-) )
    because more than 255 basis functions.


 ***********************************************
 ***** DIIS acceleration of SCF iterations *****
 ***********************************************

 C1-DIIS algorithm; max error vectors =    8

 Automatic occupation of symmetries with  64 electrons.

 Iter     Total energy    Error norm  Delta(E)    SCF occupation
 -----------------------------------------------------------------------------
   1  Screening settings (-IFTHRS, JTDIIS, DIFDEN, times)   -8    1    T  2.81D+01  2.81D+01
@  1  -431.800593444       6.61D+00  -4.32D+02    16  10   4   2
      Virial theorem: -V/T =      1.995771
@    MULPOP   C       0.51; C   _1  0.09; C   _2  0.09; C   _1  0.26; C   _2  0.26; C       0.19; N      -0.06; O   _1 -0.21; O   _2 -0.21; H   _1 -0.19; 
@             H   _2 -0.19; H   _1 -0.18; H   _2 -0.18; H      -0.18; 
   1  Level shift: doubly occupied orbital energies shifted by -2.00D-01
 -----------------------------------------------------------------------------
   2  Screening settings (-IFTHRS, JTDIIS, DIFDEN, times)   -8    2    T  2.82D+01  2.83D+01
@  2  -433.511630034       1.44D+00  -1.71D+00    16  10   4   2
      Virial theorem: -V/T =      1.989675
@    MULPOP   C       1.72; C   _1  0.02; C   _2  0.02; C   _1  0.43; C   _2  0.43; C       0.36; N       0.16; O   _1 -0.48; O   _2 -0.48; H   _1 -0.46; 
@             H   _2 -0.46; H   _1 -0.41; H   _2 -0.41; H      -0.42; 
   2  Level shift: doubly occupied orbital energies shifted by -5.00D-02
 -----------------------------------------------------------------------------
   3  Screening settings (-IFTHRS, JTDIIS, DIFDEN, times)   -8    3    T  2.78D+01  2.78D+01
@  3  -433.629990829       4.07D-01  -1.18D-01    16  10   4   2
      Virial theorem: -V/T =      1.996096
@    MULPOP   C       2.15; C   _1 -0.08; C   _2 -0.08; C   _1  0.58; C   _2  0.58; C       0.32; N       0.07; O   _1 -0.55; O   _2 -0.55; H   _1 -0.51; 
@             H   _2 -0.51; H   _1 -0.46; H   _2 -0.46; H      -0.47; 
   3  Level shift: doubly occupied orbital energies shifted by -2.50D-02
 -----------------------------------------------------------------------------
   4  Screening settings (-IFTHRS, JTDIIS, DIFDEN, times)   -8    4    T  2.74D+01  2.75D+01
@  4  -433.641966979       1.18D-01  -1.20D-02    16  10   4   2
      Virial theorem: -V/T =      1.994669
@    MULPOP   C       2.17; C   _1 -0.12; C   _2 -0.12; C   _1  0.59; C   _2  0.59; C       0.32; N       0.00; O   _1 -0.54; O   _2 -0.54; H   _1 -0.49; 
@             H   _2 -0.49; H   _1 -0.45; H   _2 -0.45; H      -0.46; 
   4  Level shift: doubly occupied orbital energies shifted by -1.25D-02
 -----------------------------------------------------------------------------
   5  Screening settings (-IFTHRS, JTDIIS, DIFDEN, times)  -10    5    F  2.80D+01  2.80D+01
@  5  -433.642960215       5.06D-02  -9.93D-04    16  10   4   2
      Virial theorem: -V/T =      1.994575
@    MULPOP   C       2.19; C   _1 -0.12; C   _2 -0.12; C   _1  0.59; C   _2  0.59; C       0.30; N       0.00; O   _1 -0.55; O   _2 -0.55; H   _1 -0.49; 
@             H   _2 -0.49; H   _1 -0.44; H   _2 -0.44; H      -0.45; 
 -----------------------------------------------------------------------------
   6  Screening settings (-IFTHRS, JTDIIS, DIFDEN, times)  -10    6    T  2.79D+01  2.79D+01
@  6  -433.643129011       1.12D-02  -1.69D-04    16  10   4   2
      Virial theorem: -V/T =      1.994679
@    MULPOP   C       2.19; C   _1 -0.13; C   _2 -0.13; C   _1  0.59; C   _2  0.59; C       0.30; N      -0.01; O   _1 -0.55; O   _2 -0.55; H   _1 -0.49; 
@             H   _2 -0.49; H   _1 -0.44; H   _2 -0.44; H      -0.45; 
 -----------------------------------------------------------------------------
   7  Screening settings (-IFTHRS, JTDIIS, DIFDEN, times)  -13    7    F  2.82D+01  2.83D+01
@  7  -433.643141367       2.21D-03  -1.24D-05    16  10   4   2
      Virial theorem: -V/T =      1.994658
@    MULPOP   C       2.19; C   _1 -0.13; C   _2 -0.13; C   _1  0.59; C   _2  0.59; C       0.30; N      -0.01; O   _1 -0.55; O   _2 -0.55; H   _1 -0.49; 
@             H   _2 -0.49; H   _1 -0.44; H   _2 -0.44; H      -0.45; 
 -----------------------------------------------------------------------------
   8  Screening settings (-IFTHRS, JTDIIS, DIFDEN, times)  -13    8    T  2.79D+01  2.79D+01
@  8  -433.643142124       9.26D-04  -7.57D-07    16  10   4   2
      Virial theorem: -V/T =      1.994657
@    MULPOP   C       2.19; C   _1 -0.13; C   _2 -0.13; C   _1  0.59; C   _2  0.59; C       0.30; N      -0.01; O   _1 -0.55; O   _2 -0.55; H   _1 -0.49; 
@             H   _2 -0.49; H   _1 -0.44; H   _2 -0.44; H      -0.45; 
 -----------------------------------------------------------------------------
   9  Screening settings (-IFTHRS, JTDIIS, DIFDEN, times)  -13    9    T  2.79D+01  2.79D+01
@  9  -433.643142226       3.02D-04  -1.02D-07    16  10   4   2
      Virial theorem: -V/T =      1.994658
@    MULPOP   C       2.19; C   _1 -0.13; C   _2 -0.13; C   _1  0.59; C   _2  0.59; C       0.30; N      -0.01; O   _1 -0.55; O   _2 -0.55; H   _1 -0.49; 
@             H   _2 -0.49; H   _1 -0.44; H   _2 -0.44; H      -0.45; 
 -----------------------------------------------------------------------------
  10  Screening settings (-IFTHRS, JTDIIS, DIFDEN, times)  -13   10    T  2.78D+01  2.78D+01
@ 10  -433.643142245       8.92D-05  -1.92D-08    16  10   4   2
      Virial theorem: -V/T =      1.994658
@    MULPOP   C       2.19; C   _1 -0.13; C   _2 -0.13; C   _1  0.59; C   _2  0.59; C       0.30; N      -0.01; O   _1 -0.55; O   _2 -0.55; H   _1 -0.49; 
@             H   _2 -0.49; H   _1 -0.44; H   _2 -0.44; H      -0.45; 
 -----------------------------------------------------------------------------
  11  Screening settings (-IFTHRS, JTDIIS, DIFDEN, times)  -13   11    T  2.78D+01  2.79D+01
@ 11  -433.643142248       4.81D-05  -2.55D-09    16  10   4   2
      Virial theorem: -V/T =      1.994658
@    MULPOP   C       2.19; C   _1 -0.13; C   _2 -0.13; C   _1  0.59; C   _2  0.59; C       0.30; N      -0.01; O   _1 -0.55; O   _2 -0.55; H   _1 -0.49; 
@             H   _2 -0.49; H   _1 -0.44; H   _2 -0.44; H      -0.45; 
 -----------------------------------------------------------------------------
  12  Screening settings (-IFTHRS, JTDIIS, DIFDEN, times)  -13   12    T  2.78D+01  2.78D+01
@ 12  -433.643142248       2.42D-05  -5.81D-10    16  10   4   2
      Virial theorem: -V/T =      1.994658
@    MULPOP   C       2.19; C   _1 -0.13; C   _2 -0.13; C   _1  0.59; C   _2  0.59; C       0.30; N      -0.01; O   _1 -0.55; O   _2 -0.55; H   _1 -0.49; 
@             H   _2 -0.49; H   _1 -0.44; H   _2 -0.44; H      -0.45; 
 -----------------------------------------------------------------------------
  13  Screening settings (-IFTHRS, JTDIIS, DIFDEN, times)  -13   13    T  2.77D+01  2.77D+01
@ 13  -433.643142248       7.27D-06  -2.14D-10    16  10   4   2
      Virial theorem: -V/T =      1.994658
@    MULPOP   C       2.19; C   _1 -0.13; C   _2 -0.13; C   _1  0.59; C   _2  0.59; C       0.30; N      -0.01; O   _1 -0.55; O   _2 -0.55; H   _1 -0.49; 
@             H   _2 -0.49; H   _1 -0.44; H   _2 -0.44; H      -0.45; 
 -----------------------------------------------------------------------------
  14  Screening settings (-IFTHRS, JTDIIS, DIFDEN, times)  -13   14    T  2.76D+01  2.76D+01
@ 14  -433.643142248       3.36D-06  -2.67D-11    16  10   4   2
      Virial theorem: -V/T =      1.994658
@    MULPOP   C       2.19; C   _1 -0.13; C   _2 -0.13; C   _1  0.59; C   _2  0.59; C       0.30; N      -0.01; O   _1 -0.55; O   _2 -0.55; H   _1 -0.49; 
@             H   _2 -0.49; H   _1 -0.44; H   _2 -0.44; H      -0.45; 
 -----------------------------------------------------------------------------
  15  Screening settings (-IFTHRS, JTDIIS, DIFDEN, times)  -13   15    T  2.75D+01  2.76D+01
@ 15  -433.643142248       1.18D-06   1.10D-11    16  10   4   2
      Virial theorem: -V/T =      1.994658
@    MULPOP   C       2.19; C   _1 -0.13; C   _2 -0.13; C   _1  0.59; C   _2  0.59; C       0.30; N      -0.01; O   _1 -0.55; O   _2 -0.55; H   _1 -0.49; 
@             H   _2 -0.49; H   _1 -0.44; H   _2 -0.44; H      -0.45; 
 -----------------------------------------------------------------------------
  16  Screening settings (-IFTHRS, JTDIIS, DIFDEN, times)  -13   16    T  2.75D+01  2.75D+01
@ 16  -433.643142248       5.13D-07  -1.51D-11    16  10   4   2

@ *** DIIS converged in  16 iterations !
@     Converged SCF energy, gradient:   -433.643142248465    5.13D-07
    - total time used in SIRFCK :              0.00 seconds

 --- Writing SIRIFC interface file

 CPU and wall time for SCF :     445.750     446.074


 ----- Output from SIRIUS MP2 module -----

 Reference: H.J.Aa.Jensen, P.Jorgensen, H.Agren, and J.Olsen,
            J. Chem. Phys. 88, 3834 (1988); 89, 5354 (1988)

 Checking that the closed shell orbitals are canonical Hartree-Fock orbitals

    Number of electrons  :   64
    Closed shell orbitals:   16   10    4    2

 Generating Fock matrix

 Hartree-Fock electronic energy:        -854.135145277257
 Hartree-Fock total      energy:        -433.643142248460

 Hartree-Fock orbital energies, symmetry 1 ( A1 ),   16 occupied SCF orbitals

       -20.68973167   -15.65618741   -11.35469819   -11.26416655   -11.25857845
       -11.24762539    -2.11213905    -1.24579931    -1.16948544    -1.04857707
        -0.89782213    -0.81849480    -0.76307942    -0.69258319    -0.63138303
        -0.53313858     0.03315177     0.04565562     0.06350321     0.10859999
         0.12371506     0.14123002     0.15387622     0.15747737     0.16980445
         0.18266653     0.20548387     0.24002541     0.26695735     0.28676992
         0.31946378     0.33235129     0.34349186     0.35867170     0.36333765
         0.39183889     0.40916273     0.42302122     0.45876473     0.47249267
         0.51031542     0.56955844     0.57574502     0.60552774     0.62925885
         0.66761140     0.67588561     0.68205725     0.72129473     0.76092609
         0.78847614     0.83350581     0.89647170     0.90289772     0.95965004
         0.98688128     1.01726095     1.06579082     1.06981221     1.08923026
         1.21341994     1.29153285     1.34132602     1.41803667     1.49979882
         1.53992984     1.55648247     1.59547262     1.61315480     1.63529709
         1.69156128     1.73606967     1.76871346     1.79059646     1.87438485
         1.95955488     1.99189189     2.03424139     2.03963114     2.19902306
         2.23510691     2.29540456     2.34449045     2.40650224     2.44104073
         2.52780033     2.56086267     2.69429914     2.75285394     2.84019922
         2.91689076     2.98488323     3.05652157     3.15113239     3.17270391
         3.31647827     3.49535315     3.88533571     4.17260664     4.21646299
        19.81823777    20.32350253    20.46995400    20.64002698    23.37017267
        23.43724563    23.48341631    23.80756459    23.90957949    24.12914345
        27.37551733    31.77985090    35.70541186    39.46888847    40.01816577

 Hartree-Fock orbital energies, symmetry 2 ( B1 ),   10 occupied SCF orbitals

       -20.68673380   -11.26414018   -11.25859185    -1.11939943    -1.03948895
        -0.85354597    -0.65448653    -0.61019450    -0.54595934    -0.51353027
         0.03905924     0.05756137     0.13329433     0.13743446     0.15246121
         0.16159716     0.18106262     0.20684288     0.25861852     0.29727580
         0.30713568     0.31774740     0.35149377     0.36664376     0.38015173
         0.40312478     0.41515840     0.43345757     0.51463472     0.55993352
         0.58018389     0.63200874     0.65706831     0.68111797     0.69913427
         0.75310111     0.77398286     0.82665298     0.84549810     0.86364132
         0.89218798     0.96997328     1.03415344     1.16893967     1.25469786
         1.31555024     1.35874440     1.39277391     1.47375092     1.50760541
         1.55454845     1.60363873     1.65765241     1.68985132     1.72394740
         1.76871944     1.79007321     1.82364006     1.87228377     1.94612795
         2.05555433     2.14094979     2.17542221     2.31826554     2.33411844
         2.38508994     2.44971689     2.54765352     2.70232481     2.74473200
         2.91055365     2.94496506     3.17381541     3.29844172     3.37896584
         3.43311255     4.05134090     4.56388223     4.96880326    20.29688547
        20.48080256    22.87619030    23.33104533    23.39478230    23.96316148
        24.13243172    24.31888890    31.34237300    36.15813719    40.05861943
        42.09253667

 Hartree-Fock orbital energies, symmetry 3 ( B2 ),    4 occupied SCF orbitals

        -0.97544537    -0.54594792    -0.44071581    -0.30890942     0.10366212
         0.12009281     0.13909897     0.18496469     0.19008274     0.22987058
         0.29835353     0.33990677     0.39069560     0.46868335     0.54717175
         0.59990874     0.67309025     0.71609051     0.79519736     0.87761187
         0.91691255     0.93071640     0.95893811     1.04138355     1.07918659
         1.15653307     1.19559108     1.47912959     1.52703193     1.62847479
         1.68284201     1.71715925     1.85092522     1.94472309     2.09710841
         2.13632048     2.18848347     2.31551106     2.56220966     2.68911906
         3.09014030     3.70438807    22.56528445    22.71312177    22.84199847
        23.04104807    30.76974548    39.41836661

 Hartree-Fock orbital energies, symmetry 4 ( A2 ),    2 occupied SCF orbitals

        -0.36066778    -0.35583100     0.09454802     0.13748314     0.19147195
         0.28560623     0.41918083     0.49557922     0.55207657     0.66047312
         0.74524351     0.89025675     0.90994001     0.94812537     1.04091710
         1.08200680     1.23056002     1.33291862     1.44880350     1.64118708
         1.69218101     1.70299780     1.82671364     1.88464222     2.11467531
         2.18883982     2.36150566     2.54659373     2.63188464     3.89253999
         4.45169438    22.70915058    22.87792480    39.53230699

    E(LUMO) :     0.03315177   (in symmetry 1)
  - E(HOMO) :    -0.30890942   (in symmetry 3)
  --------------------------
    gap     :     0.34206118

---> (Re)generating AOTWOINT


     ************************************************************************
     ************************** Output from HERINT **************************
     ************************************************************************


 Threshold for neglecting two-electron integrals:  1.00D-12
 HERMIT - Number of two-electron integrals written:   198196786 ( 22.9% )
 HERMIT - Megabytes written:                           3025.503

  Time used in TWOINT     is      39.44 seconds

 2-el. integral transformation level 5: Total CPU and WALL times (sec)     408.859     410.973

 MP2 move   0.894547 electrons to unoccupied HF orbitals


@   Hartree-Fock total energy   :          -433.6431422485
@   + MP2 contribution          :            -1.6569837753
@   = MP2 second order energy   :          -435.3001260238

 Natural orbital occupation numbers, symmetry 1 (irrep A1 )
 Sum =    31.99395982; RHF =    32.00000000; Difference =    -0.00604018

         1.99928195     1.99905776     1.99876115     1.99875789     1.99875214
         1.99874866     1.99014836     1.98421861     1.97982654     1.97450014
         1.97150072     1.96958161     1.96632780     1.96289174     1.95605766
         1.94931154     0.03832680     0.02561158     0.02424423     0.02193371
         0.01897329     0.01719326     0.01643404     0.01354562     0.01299226
         0.01224774     0.00997217     0.00888810     0.00837711     0.00768875
         0.00667366     0.00624980     0.00470245     0.00424351     0.00346456
         0.00299283     0.00288446     0.00257658     0.00237046     0.00206793
         0.00169443     0.00155464     0.00140899     0.00127837     0.00122571
         0.00112321     0.00106375     0.00095130     0.00073490     0.00065594
         0.00061765     0.00050988     0.00048600     0.00044554     0.00043055
         0.00041627     0.00039881     0.00037482     0.00035911     0.00035393
         0.00034118     0.00032477     0.00031394     0.00030038     0.00028086
         0.00026107     0.00023328     0.00022422     0.00022084     0.00019747
         0.00019397     0.00018350     0.00017710     0.00017245     0.00016751
         0.00016040     0.00015721     0.00014352     0.00013931     0.00013526
         0.00013244     0.00012106     0.00011850     0.00010540     0.00010118
         0.00009235     0.00007801     0.00006524     0.00005848     0.00005148
         0.00004470     0.00003641     0.00003344     0.00002522     0.00001712
         0.00001480     0.00001415     0.00001241     0.00001064     0.00000950
         0.00000782     0.00000742     0.00000645     0.00000352     0.00000223
         0.00000131     0.00000088     0.00000070     0.00000044     0.00000025
         0.00000015     0.00000007    -0.00000008    -0.00000074    -0.00000431

 Natural orbital occupation numbers, symmetry 2 (irrep B1 )
 Sum =    19.99231703; RHF =    20.00000000; Difference =    -0.00768297

         1.99927292     1.99875752     1.99874989     1.98169251     1.98000950
         1.97258859     1.96088723     1.95558275     1.95429692     1.94424666
         0.04611970     0.02507060     0.02371315     0.01801027     0.01696942
         0.01639908     0.01573256     0.01200006     0.00973721     0.00912555
         0.00825454     0.00562963     0.00532621     0.00356843     0.00319863
         0.00305540     0.00249959     0.00216843     0.00197685     0.00164262
         0.00161293     0.00141339     0.00133175     0.00117602     0.00102406
         0.00099653     0.00068274     0.00064275     0.00054458     0.00045814
         0.00043198     0.00042332     0.00036944     0.00033835     0.00032959
         0.00030258     0.00029436     0.00026379     0.00025376     0.00022318
         0.00020877     0.00019914     0.00018811     0.00018313     0.00018207
         0.00017206     0.00016780     0.00016338     0.00015072     0.00014177
         0.00013601     0.00012844     0.00012313     0.00011796     0.00010253
         0.00010016     0.00009326     0.00007991     0.00005313     0.00004594
         0.00003181     0.00003109     0.00002368     0.00001794     0.00001528
         0.00001365     0.00001234     0.00001079     0.00000952     0.00000897
         0.00000442     0.00000285     0.00000135     0.00000087     0.00000063
         0.00000036     0.00000027     0.00000011    -0.00000005    -0.00000072
        -0.00000120

 Natural orbital occupation numbers, symmetry 3 (irrep B2 )
 Sum =     7.99163570; RHF =     8.00000000; Difference =    -0.00836430

         1.97910656     1.95889192     1.94526708     1.90742420     0.07120350
         0.03161425     0.01506272     0.01342415     0.01071729     0.00967731
         0.00892417     0.00744796     0.00711174     0.00532945     0.00403486
         0.00333930     0.00240942     0.00162018     0.00146545     0.00092039
         0.00089416     0.00070435     0.00056417     0.00052989     0.00047960
         0.00045459     0.00039244     0.00034551     0.00030120     0.00024567
         0.00021401     0.00020191     0.00019222     0.00018234     0.00017271
         0.00013753     0.00012781     0.00011751     0.00009877     0.00009219
         0.00007503     0.00005583     0.00002911     0.00002414     0.00001211
         0.00000709     0.00000179    -0.00000991

 Natural orbital occupation numbers, symmetry 4 (irrep A2 )
 Sum =     4.02208746; RHF =     4.00000000; Difference =     0.02208746

         1.96883142     1.91259483     0.06946246     0.01782901     0.01098863
         0.00967691     0.00733603     0.00576134     0.00435550     0.00373051
         0.00272466     0.00150136     0.00143881     0.00096167     0.00079393
         0.00074199     0.00063045     0.00054098     0.00041814     0.00038442
         0.00031583     0.00023772     0.00019737     0.00018380     0.00014747
         0.00013281     0.00012400     0.00009909     0.00007462     0.00005020
         0.00002211     0.00001955     0.00001059    -0.00023074

 Time used for MP2 natural orbitals :     441.234 CPU seconds,     443.388 wall seconds.

 CPU and wall time for MP2 :     441.234     443.388


        SIRIUS MCSCF optimization (SIROPT)
 ================================================


 Fock matrix screening setting for SIRCNO: IFTHRS =    9


 ----- Output from SIRIUS CI module (CICTL) -----




 2-el. integral transformation level 0: Total CPU and WALL times (sec)      97.828      97.864


 --- SIRCI.CIST1: plus combination of all degenerate
                 configurations is used as start vectors.


 (CIST1) 18 lowest diagonal elements:

 Element no. Config.no.    Active energy      Total energy

         1 :         47    -15.0431656774   -433.4175971607
         2 :         48    -14.8192274091   -433.1936588925
         3 :         56    -14.6050475080   -432.9794789914
         4 :         51    -14.5096226048   -432.8840540882
         5 :         49    -14.2487534621   -432.6231849454
         6 :         39    -14.2431433331   -432.6175748164
         7 :         31    -14.2410147665   -432.6154462498
         8 :          9    -14.2388375173   -432.6132690006
         9 :         19    -14.2137874302   -432.5882189135
        10 :         21    -14.1626992630   -432.5371307464
        11 :         50    -14.1003073423   -432.4747388256
        12 :         34    -14.0995368671   -432.4739683504
        13 :         10    -14.0967191323   -432.4711506157
        14 :         40    -14.0946722254   -432.4691037087
        15 :          5    -14.0248414411   -432.3992729245
        16 :         24    -14.0157742543   -432.3902057377
        17 :         17    -13.9980166384   -432.3724481217
        18 :         33    -13.9838447386   -432.3582762220


 Convergence threshold for CI optimization :     0.00000500



 *** Reached maximum number of CI iterations:    3
              1 CI roots are not converged.


@ Final CI energies and residuals in symmetry 1 (irrep A1 )
@    1     -433.420151883220854       5.34D-02
@    2     -433.197488461902992       8.48D-05
@    3     -432.977216093564550       5.51D-02
@    4     -432.883431098074027       3.39D-02
@    5     -432.668916166863255       3.09D-02
@    6     -432.571766699455566       3.19D-02

   --- OUTPUT FROM SIRCNO     Keyword = FD+NO 


 Occupations of CAS natural orbitals:

 Symmetry  1 ( irrep A1  in C2v )

   1.996909579

 Symmetry  2 ( irrep B1  in C2v )

   0.003104074

 Symmetry  3 ( irrep B2  in C2v )

   1.999984361   1.999765515

 Symmetry  4 ( irrep A2  in C2v )

   1.000013143   1.999999376   1.000223951


 --- MACRO ITERATION  1 ---
 --------------------------

 2-el. integral transformation level 3: Total CPU and WALL times (sec)      99.812      99.855

 Fock matrix screening setting for this macro iteration: 10^( -9)

 Total MCSCF energy       :          -433.197488462715171  (MACRO    1)

 - Nuclear repulsion      :           420.492003028796546
 - Inactive energy        :          -838.866434512499836
 - Active energy          :           -14.823056979011897

 Norm of total gradient   :             1.711466581447
 -    of CI gradient      :             0.000169653484
 -    of orbital gradient :             1.711466573038
      Virial theorem: -V/T =      1.985519
@    MULPOP   C       2.05; C   _1 -0.24; C   _2 -0.24; C   _1  0.31; C   _2  0.31; C       0.36; N       0.90; O   _1 -0.46; O   _2 -0.46; H   _1 -0.54; 
@             H   _2 -0.54; H   _1 -0.47; H   _2 -0.47; H      -0.49; 

 Residual norm when dim(red L) =   7
 NEO root     CSF        orbital          total
    1     0.01892829     0.02080640     0.02812804 converged

 (NEONEX) NEO auxiliary root no.  1 is converged.

 Residual norm when dim(red L) =   8
 NEO root     CSF        orbital          total
    2     0.02682902     0.20051974     0.20230661 converged

 (NEONEX) NEO vector is converged.

   --- OUTPUT FROM SIRCNO     Keyword = FD+NO 


 Occupations of CAS natural orbitals:

 Symmetry  1 ( irrep A1  in C2v )

   1.996900825

 Symmetry  2 ( irrep B1  in C2v )

   0.003114053

 Symmetry  3 ( irrep B2  in C2v )

   1.999975276   1.999756359

 Symmetry  4 ( irrep A2  in C2v )

   1.000021733   1.999998697   1.000233056


 --- MACRO ITERATION  2 ---
 --------------------------

 2-el. integral transformation level 3: Total CPU and WALL times (sec)      98.875      98.963

 Fock matrix screening setting for this macro iteration: 10^( -9)

 Total MCSCF energy       :          -433.452157456403881  (MACRO    2)

 - Nuclear repulsion      :           420.492003028796546
 - Inactive energy        :          -838.656930116395529
 - Active energy          :           -15.287230368804899

 Norm of total gradient   :             0.271156935589
 -    of CI gradient      :             0.032764716706
 -    of orbital gradient :             0.269170126606
      Virial theorem: -V/T =      1.985053
@    MULPOP   C       2.56; C   _1 -0.20; C   _2 -0.20; C   _1  0.49; C   _2  0.49; C       0.34; N       0.46; O   _1 -0.59; O   _2 -0.59; H   _1 -0.64; 
@             H   _2 -0.64; H   _1 -0.51; H   _2 -0.51; H      -0.47; 

 Residual norm when dim(red L) =   9
 NEO root     CSF        orbital          total
    1     0.07016023     0.05665124     0.09017661 converged

 (NEONEX) NEO auxiliary root no.  1 is converged.

 (SIRNEO) iteration (  2,  7)
 Micro iteration termination criterion met, EVAL(ISTATE+1) = -2.55D-03

   --- OUTPUT FROM SIRCNO     Keyword = FD+NO 


 Occupations of CAS natural orbitals:

 Symmetry  1 ( irrep A1  in C2v )

   1.997026452

 Symmetry  2 ( irrep B1  in C2v )

   0.002985485

 Symmetry  3 ( irrep B2  in C2v )

   1.999991063   1.999766073

 Symmetry  4 ( irrep A2  in C2v )

   1.000006397   1.999998956   1.000225573


 --- MACRO ITERATION  3 ---
 --------------------------

 2-el. integral transformation level 3: Total CPU and WALL times (sec)      99.328      99.377

 Fock matrix screening setting for this macro iteration: 10^( -9)

 Total MCSCF energy       :          -433.461108800726208  (MACRO    3)

 - Nuclear repulsion      :           420.492003028796546
 - Inactive energy        :          -838.457938948203719
 - Active energy          :           -15.495172881319025

 Norm of total gradient   :             0.111389375147
 -    of CI gradient      :             0.061671125194
 -    of orbital gradient :             0.092759178591
      Virial theorem: -V/T =      1.989684
@    MULPOP   C       2.64; C   _1 -0.30; C   _2 -0.30; C   _1  0.46; C   _2  0.46; C       0.32; N       0.21; O   _1 -0.39; O   _2 -0.39; H   _1 -0.63; 
@             H   _2 -0.63; H   _1 -0.50; H   _2 -0.50; H      -0.46; 

 Residual norm when dim(red L) =  12
 NEO root     CSF        orbital          total
    1     0.04357462     0.04011163     0.05922576 converged

 (NEONEX) NEO auxiliary root no.  1 is converged.

 Residual norm when dim(red L) =  15
 NEO root     CSF        orbital          total
    2     0.01204139     0.00431560     0.01279138 converged

 (NEONEX) NEO vector is converged.

   --- OUTPUT FROM SIRCNO     Keyword = FD+NO 


 Occupations of CAS natural orbitals:

 Symmetry  1 ( irrep A1  in C2v )

   1.990967903

 Symmetry  2 ( irrep B1  in C2v )

   0.009032395

 Symmetry  3 ( irrep B2  in C2v )

   1.999998363   1.999911282

 Symmetry  4 ( irrep A2  in C2v )

   1.000001623   1.999999451   1.000088983


 --- MACRO ITERATION  4 ---
 --------------------------

 2-el. integral transformation level 3: Total CPU and WALL times (sec)     100.859     100.892

 Fock matrix screening setting for this macro iteration: 10^( -9)

 Total MCSCF energy       :          -433.460862173340274  (MACRO    4)

 - Nuclear repulsion      :           420.492003028796546
 - Inactive energy        :          -837.962901129159150
 - Active energy          :           -15.989964072977665

 Norm of total gradient   :             0.135824543429
 -    of CI gradient      :             0.133078877471
 -    of orbital gradient :             0.027172025481
      Virial theorem: -V/T =      1.990806
@    MULPOP   C       1.67; C   _1 -0.02; C   _2 -0.02; C   _1  0.49; C   _2  0.49; C       0.28; N       0.40; O   _1 -0.31; O   _2 -0.31; H   _1 -0.60; 
@             H   _2 -0.60; H   _1 -0.51; H   _2 -0.51; H      -0.45; 

 (SIRSTP) Energy difference;
 actual, predicted and ratio:   0.000246627385934  -0.003732906939131   -0.066068

 (SIRSTP) step is too large -- backstep

   --- OUTPUT FROM SIRCNO     Keyword = FD+NO 


 Occupations of CAS natural orbitals:

 Symmetry  1 ( irrep A1  in C2v )

   1.993497222

 Symmetry  2 ( irrep B1  in C2v )

   0.006504616

 Symmetry  3 ( irrep B2  in C2v )

   1.999998637   1.999878888

 Symmetry  4 ( irrep A2  in C2v )

   1.000001096   1.999999812   1.000119728


 Optimization control: Step was too large, we backstep


 --- MACRO ITERATION  4 BACKSTEP NO.  1 ---

 2-el. integral transformation level 3: Total CPU and WALL times (sec)      99.797      99.827

 Fock matrix screening setting for this macro iteration: 10^( -9)

 Total MCSCF energy       :          -433.463104169280314  (MACRO    4)

 - Nuclear repulsion      :           420.492003028796546
 - Inactive energy        :          -838.104548566382505
 - Active energy          :           -15.850558631694343

 Norm of total gradient   :             0.050053270875
 -    of CI gradient      :             0.034942249513
 -    of orbital gradient :             0.035838095990
      Virial theorem: -V/T =      1.990620
@    MULPOP   C       2.00; C   _1 -0.14; C   _2 -0.14; C   _1  0.49; C   _2  0.49; C       0.31; N       0.33; O   _1 -0.33; O   _2 -0.33; H   _1 -0.61; 
@             H   _2 -0.61; H   _1 -0.51; H   _2 -0.51; H      -0.46; 

 Residual norm when dim(red L) =   6
 NEO root     CSF        orbital          total
    1     0.03244764     0.04842299     0.05828924 converged

 (NEONEX) NEO auxiliary root no.  1 is converged.

 (SIRNEO) iteration (  4, 11)
 Micro iteration termination criterion met, EVAL(ISTATE+1) = -1.61D-04

   --- OUTPUT FROM SIRCNO     Keyword = FD+NO 


 Occupations of CAS natural orbitals:

 Symmetry  1 ( irrep A1  in C2v )

   1.993510457

 Symmetry  2 ( irrep B1  in C2v )

   0.006490680

 Symmetry  3 ( irrep B2  in C2v )

   1.999958154   1.999841725

 Symmetry  4 ( irrep A2  in C2v )

   1.000041278   1.999999707   1.000158000


 --- MACRO ITERATION  5 ---
 --------------------------

 2-el. integral transformation level 3: Total CPU and WALL times (sec)      99.156      99.198

 Fock matrix screening setting for this macro iteration: 10^( -9)

 Total MCSCF energy       :          -433.463450700272688  (MACRO    5)

 - Nuclear repulsion      :           420.492003028796546
 - Inactive energy        :          -837.628559123191962
 - Active energy          :           -16.326894605877296

 Norm of total gradient   :             0.039386556177
 -    of CI gradient      :             0.027048511416
 -    of orbital gradient :             0.028630033839
      Virial theorem: -V/T =      1.991423
@    MULPOP   C       1.93; C   _1 -0.20; C   _2 -0.20; C   _1  0.50; C   _2  0.50; C       0.36; N       0.51; O   _1 -0.35; O   _2 -0.35; H   _1 -0.61; 
@             H   _2 -0.61; H   _1 -0.50; H   _2 -0.50; H      -0.46; 

 Residual norm when dim(red L) =  10
 NEO root     CSF        orbital          total
    1     0.00798623     0.01831291     0.01997855 converged

 (NEONEX) NEO auxiliary root no.  1 is converged.

 Residual norm when dim(red L) =  12
 NEO root     CSF        orbital          total
    2     0.00372244     0.00279707     0.00465619 converged

 (NEONEX) NEO vector is converged.

   --- OUTPUT FROM SIRCNO     Keyword = FD+NO 


 Occupations of CAS natural orbitals:

 Symmetry  1 ( irrep A1  in C2v )

   1.994098260

 Symmetry  2 ( irrep B1  in C2v )

   0.005903092

 Symmetry  3 ( irrep B2  in C2v )

   1.999996994   1.999868119

 Symmetry  4 ( irrep A2  in C2v )

   1.000002348   1.999999650   1.000131538


 --- MACRO ITERATION  6 ---
 --------------------------

 2-el. integral transformation level 3: Total CPU and WALL times (sec)     100.734     100.747

 Fock matrix screening setting for this macro iteration: 10^( -9)

 Total MCSCF energy       :          -433.463552271437607  (MACRO    6)

 - Nuclear repulsion      :           420.492003028796546
 - Inactive energy        :          -838.050816833359477
 - Active energy          :           -15.904738466874683

 Norm of total gradient   :             0.012953751929
 -    of CI gradient      :             0.010370602264
 -    of orbital gradient :             0.007762106526
      Virial theorem: -V/T =      1.991511
@    MULPOP   C       1.98; C   _1 -0.23; C   _2 -0.23; C   _1  0.51; C   _2  0.51; C       0.38; N       0.43; O   _1 -0.33; O   _2 -0.33; H   _1 -0.61; 
@             H   _2 -0.61; H   _1 -0.50; H   _2 -0.50; H      -0.46; 

 (SIRSTP) Energy difference;
 actual, predicted and ratio:  -0.000101571164919  -0.000040612974498    2.500954

 (SIRSTP) step is too large -- backstep

   --- OUTPUT FROM SIRCNO     Keyword = FD+NO 


 Occupations of CAS natural orbitals:

 Symmetry  1 ( irrep A1  in C2v )

   1.993925906

 Symmetry  2 ( irrep B1  in C2v )

   0.006074732

 Symmetry  3 ( irrep B2  in C2v )

   1.999995876   1.999867614

 Symmetry  4 ( irrep A2  in C2v )

   1.000003940   1.999999672   1.000132261


 Optimization control: Step was too large, we backstep


 --- MACRO ITERATION  6 BACKSTEP NO.  1 ---

 2-el. integral transformation level 3: Total CPU and WALL times (sec)     100.031     100.060

 Fock matrix screening setting for this macro iteration: 10^( -9)

 Total MCSCF energy       :          -433.463506569323272  (MACRO    6)

 - Nuclear repulsion      :           420.492003028796546
 - Inactive energy        :          -838.014023410417735
 - Active energy          :           -15.941486187702104

 Norm of total gradient   :             0.020439551063
 -    of CI gradient      :             0.014482575787
 -    of orbital gradient :             0.014423253663
      Virial theorem: -V/T =      1.991499
@    MULPOP   C       1.96; C   _1 -0.22; C   _2 -0.22; C   _1  0.51; C   _2  0.51; C       0.37; N       0.46; O   _1 -0.34; O   _2 -0.34; H   _1 -0.61; 
@             H   _2 -0.61; H   _1 -0.50; H   _2 -0.50; H      -0.46; 

 (SIRSTP) Energy difference;
 actual, predicted and ratio:  -0.000055869050584  -0.000032285586611    1.730464

 (SIRSTP) step is too large -- backstep

   --- OUTPUT FROM SIRCNO     Keyword = FD+NO 


 Occupations of CAS natural orbitals:

 Symmetry  1 ( irrep A1  in C2v )

   1.993798511

 Symmetry  2 ( irrep B1  in C2v )

   0.006202003

 Symmetry  3 ( irrep B2  in C2v )

   1.999987840   1.999863594

 Symmetry  4 ( irrep A2  in C2v )

   1.000012048   1.999999685   1.000136321


 Optimization control: Step was too large, we backstep


 --- MACRO ITERATION  6 BACKSTEP NO.  2 ---

 2-el. integral transformation level 3: Total CPU and WALL times (sec)      98.750      98.814

 Fock matrix screening setting for this macro iteration: 10^( -9)

 Total MCSCF energy       :          -433.463482775269085  (MACRO    6)

 - Nuclear repulsion      :           420.492003028796546
 - Inactive energy        :          -837.937980974893435
 - Active energy          :           -16.017504829172218

 Norm of total gradient   :             0.026393358626
 -    of CI gradient      :             0.018235434959
 -    of orbital gradient :             0.019080835711
      Virial theorem: -V/T =      1.991482
@    MULPOP   C       1.95; C   _1 -0.22; C   _2 -0.22; C   _1  0.51; C   _2  0.51; C       0.37; N       0.48; O   _1 -0.34; O   _2 -0.34; H   _1 -0.61; 
@             H   _2 -0.61; H   _1 -0.50; H   _2 -0.50; H      -0.46; 

 Residual norm when dim(red L) =   6
 NEO root     CSF        orbital          total
    1     0.03517703     0.06295143     0.07211315 converged

 (NEONEX) NEO auxiliary root no.  1 is converged.

 Residual norm when dim(red L) =  11
 NEO root     CSF        orbital          total
    2     0.00278791     0.00206490     0.00346933 converged

 (NEONEX) NEO vector is converged.

   --- OUTPUT FROM SIRCNO     Keyword = FD+NO 


 Occupations of CAS natural orbitals:

 Symmetry  1 ( irrep A1  in C2v )

   1.994049254

 Symmetry  2 ( irrep B1  in C2v )

   0.005951878

 Symmetry  3 ( irrep B2  in C2v )

   1.999998237   1.999869723

 Symmetry  4 ( irrep A2  in C2v )

   1.000001377   1.999999649   1.000129881


 --- MACRO ITERATION  7 ---
 --------------------------

 2-el. integral transformation level 3: Total CPU and WALL times (sec)      99.891      99.973

 Fock matrix screening setting for this macro iteration: 10^( -9)

 Total MCSCF energy       :          -433.463619804701921  (MACRO    7)

 - Nuclear repulsion      :           420.492003028796546
 - Inactive energy        :          -838.078332090683944
 - Active energy          :           -15.877290742814536

 Norm of total gradient   :             0.005720371325
 -    of CI gradient      :             0.004701715943
 -    of orbital gradient :             0.003258299448
[...]
  84 H   :1s    -0.0568  -0.0196  -0.1442  -0.1825   0.1189  -0.9247  -0.0221
  85 H   :1s     0.0070   0.0024  -0.0203  -0.0329  -0.8735  -6.4057   2.9092
  86 H   :2px   -0.0022   0.0102  -0.0063  -0.0058  -0.0007   0.0064   0.0007
  88 H   :2px   -0.0002   0.0077  -0.0594  -0.0172   0.0425  -0.0720  -0.0409
  89 H   :2pz   -0.0265   0.0170  -0.0244  -0.0302  -0.0092  -0.0005   0.0068
  91 H   :2px   -0.0081  -0.0025   0.0169  -0.0037   0.0587   0.1276  -0.0505

    Orbital        15       16       17       18       19       20       21
   1 C   :2px    0.0026  -0.0245   0.0388  -0.0154  -0.0486  -0.0085   0.0907
   2 C   :2px    0.6045  -3.1981  -2.2964  -1.8862   4.3009  11.1899   0.6232
   4 C   :2px  -37.5328  23.7026  11.3740   6.1109   0.6558-118.7357 -49.0547
   5 C   :3d1+   0.0029   0.0108   0.0029   0.0146   0.0054  -0.0075   0.0227
   6 C   :3d1+  -0.8729   0.5967   1.1882   0.6009  -1.9122  -3.2323   2.3604
   7 C   :1s     0.0256   0.0170  -0.0009   0.0001   0.0004   0.0053   0.0065
   8 C   :1s     0.0406   0.0140   0.0107  -0.0156  -0.0292   0.0355  -0.0015
   9 C   :1s    -0.9308  -2.2689  -1.2189  -1.1351   1.4739  -2.0563  -3.3294
  11 C   :1s   -38.9315   2.1801  15.8125  14.8267   1.1813  -7.4380   8.3749
  12 C   :2px    0.0670   0.0837   0.0027   0.0767   0.0440   0.0060  -0.0017
  13 C   :2pz   -0.0319  -0.0397  -0.0383  -0.0414  -0.0050  -0.0135  -0.0456
  14 C   :2px    1.0659  -1.4960  -1.9915  -1.8145   2.5654   5.2126  -1.8190
  15 C   :2pz    0.8166  -0.1664  -1.0613  -0.1027   3.7921  10.4666   2.0804
  18 C   :2px  -11.6784   0.9592   8.9365  -2.1831 -12.2831 -56.4870 -26.9829
  19 C   :2pz  -11.2098  21.1475   9.8603  -2.7711 -10.1577 -91.2064 -55.9231
  20 C   :3d0   -0.0016   0.0010  -0.0079  -0.0004   0.0015  -0.0135   0.0200
  21 C   :3d1+  -0.0051   0.0057  -0.0099  -0.0087   0.0149   0.0069  -0.0175
  22 C   :3d2+   0.0041  -0.0118  -0.0060  -0.0055  -0.0008   0.0002  -0.0077
  23 C   :3d0   -0.6323   0.0324   0.6915  -0.0201  -1.7346  -3.0566   0.1994
  24 C   :3d1+   0.1780  -1.0503   0.1058  -0.0881   0.0404   1.7630   1.0297
  25 C   :3d2+   0.0116  -0.0254  -0.2377   0.0921   0.8583   1.8250  -0.0761
  26 C   :1s     0.0049  -0.0146   0.0051   0.0160  -0.0217   0.0130  -0.0012
  27 C   :1s     0.0158  -0.0067  -0.0057  -0.0079  -0.0558   0.0483   0.0319
  28 C   :1s    -0.2986  -0.4114  -0.2547  -1.6388   4.2523  -1.9505  -0.6587
  30 C   :1s     1.0160  27.6674 -11.5148 -13.6770 -11.9732  12.4496 -12.7616
  31 C   :2px    0.0207  -0.0135  -0.0039   0.1082  -0.0758   0.0095   0.0031
  32 C   :2pz    0.0149   0.0119   0.0341   0.0485  -0.0287  -0.0169   0.0430
  33 C   :2px   -1.0091  -1.3625   1.2791  -1.6618   0.2067  -7.6699  -0.6116
  34 C   :2pz    1.7466   0.2672  -0.8908   0.9901   2.9447  11.1722   2.1287
  37 C   :2px    5.1822  -0.5947  -7.8934  -4.8849  12.3842  56.6245  27.7303
  38 C   :2pz   -4.3278   8.8260   4.2062  -4.9148  -1.0549 -99.6336 -48.8467
  39 C   :3d0    0.0047  -0.0012   0.0077   0.0053   0.0060   0.0105   0.0072
  40 C   :3d1+   0.0088   0.0084  -0.0050   0.0021   0.0051   0.0120   0.0090
  41 C   :3d2+   0.0020  -0.0045   0.0002  -0.0093   0.0116  -0.0069  -0.0004
  42 C   :3d0    0.3954   0.3615  -0.2746   0.0152   0.6985   3.7307   0.5950
  43 C   :3d1+   0.1888  -0.2629   0.3565   0.9080  -0.5434   2.2670   1.0582
  44 C   :3d2+  -0.3303   0.0892   0.0674  -0.1450  -0.4604  -2.1377  -0.3967
  45 C   :2px    0.0201   0.0208   0.0311  -0.0189   0.0331   0.0057   0.0442
  46 C   :2px   -2.1023  -0.5855   0.8622  -3.5367   0.4274 -14.1470  -3.0193
  48 C   :2px    5.8240  -1.4590 -13.0754  -1.5396  -5.0077 118.9861  52.6229
  49 C   :3d1+  -0.0061  -0.0049   0.0045  -0.0194   0.0032  -0.0154  -0.0018
  50 C   :3d1+  -0.7117  -0.6758   0.8788  -0.5377   0.3488  -5.3874  -0.8409
  51 N   :2px    0.0310   0.0556   0.0203  -0.0232  -0.0004  -0.0445   0.1782
  52 N   :2px    0.0998   0.0300  -0.2731  -0.0975   0.4001   0.1951  -0.0834
  54 N   :2px    5.9523   1.3616   5.9116  -3.0257  -6.3366   0.6870 -11.5871
  55 N   :3d1+   0.0112   0.0078   0.0055  -0.0048  -0.0061  -0.0081  -0.0030
  56 N   :3d1+  -0.1805  -0.0382  -0.0950  -0.0252   0.1793   0.0929   0.7814
  57 O   :1s     0.0089   0.0074   0.0089  -0.0062  -0.0056  -0.0015   0.0146
  58 O   :1s     0.0547   0.0507   0.0216  -0.0193  -0.0139  -0.0337   0.1752
  59 O   :1s    -0.4792  -0.3684  -0.7085   0.3397   0.5784   0.0152  -0.1099
  61 O   :1s    -4.0168  -2.3162  -3.3426   3.6246   4.5665  -2.1110  -2.9966
  62 O   :2px   -0.0036  -0.0154  -0.0124   0.0047   0.0038   0.0270  -0.0230
  63 O   :2pz   -0.0307  -0.0269  -0.0346   0.0164   0.0262   0.0233  -0.0342
  64 O   :2px    0.4523   0.3156   0.6243  -0.2412  -0.5870  -0.0974  -0.1574
  65 O   :2pz   -0.0552  -0.0200  -0.1377  -0.0541   0.1755   0.0919   0.3553
  68 O   :2px    0.0506   0.0236  -0.8290  -0.4474   0.0079   1.4880   3.1200
  69 O   :2pz    1.5968   1.2323   2.7243  -1.0443  -1.9514  -1.9486  -0.7144
  70 O   :3d0    0.0033   0.0057   0.0028  -0.0020   0.0000  -0.0065   0.0176
  72 O   :3d2+  -0.0004  -0.0023   0.0000   0.0004  -0.0019   0.0041  -0.0102
  73 O   :3d0    0.0442   0.0205   0.0690  -0.0094  -0.0839  -0.0128  -0.0698
  74 O   :3d1+  -0.0017  -0.0020   0.0028   0.0110  -0.0063   0.0044  -0.0149
  75 O   :3d2+  -0.0810  -0.0603  -0.1067   0.0372   0.1032   0.0285   0.0290
  76 H   :1s    -0.0339  -0.0505  -0.0077  -0.0371  -0.0457  -0.0042  -0.0074
  77 H   :1s     2.0476  -2.7709  -0.6108  -2.1350  -1.7462  -0.8034  -0.3582
  78 H   :1s    -6.3493  -4.7070   2.8011  -0.1566  -3.0338  -1.6563   4.0931
  81 H   :2px    0.5108  -0.3890  -0.1656  -0.2811  -0.0431   0.3541  -0.2288
  82 H   :2pz   -0.0736   0.1242  -0.0055   0.3690   0.5301   0.7130   0.3028
  83 H   :1s    -0.0081   0.0262  -0.0026  -0.0711   0.0405   0.0214   0.0040
  84 H   :1s     0.7234  -1.4147   0.2834  -1.8155   2.8636  -0.4812  -0.1105
  85 H   :1s     0.1363   4.8682  -3.2001  -5.8152   3.5656   0.7667  -2.2720
  88 H   :2px    0.1070  -0.2662  -0.0108  -0.2405   0.2132  -0.6681  -0.1638
  89 H   :2pz    0.2022  -0.1985   0.2989  -0.1443   0.1842   1.0317   0.2439
  90 H   :2px    0.0004  -0.0054  -0.0066   0.0031  -0.0049  -0.0117   0.0052
  91 H   :2px   -0.1286  -0.1738   0.5447   0.1030   0.3772  -1.3494  -0.2532

 Molecular orbitals for symmetry species 3  (B2 )
 ------------------------------------------------

    Orbital         1        2        3        4        5        6        7
   1 C   :2py   -0.2629   0.4822   0.3528  -0.0139  -0.1154   0.3602   0.2012
   2 C   :2py    0.0656  -0.0050  -0.0419   0.0435  -0.0525   0.1070   0.0691
   4 C   :2py    0.0517   0.0118  -0.0380  -0.0041   0.6520   4.2974  -1.1348
   5 C   :3d1-  -0.0258  -0.0163  -0.0217   0.0023  -0.0070   0.0054   0.0054
   6 C   :3d1-   0.1124   0.0024  -0.0059   0.0154  -0.2312   0.1097  -0.0726
   7 C   :2py   -0.0760   0.2185   0.3319  -0.0146  -0.0353  -0.1232  -0.1226
   8 C   :2py    0.0568   0.0097  -0.0279  -0.0123  -0.1619   0.0245  -0.1209
  10 C   :2py   -0.0164   0.0523   0.0327   0.0102   0.4221  -2.6591   0.5144
  11 C   :3d2-  -0.0089   0.0176   0.0147  -0.0006  -0.0034   0.0200   0.0092
  12 C   :3d1-  -0.0047   0.0219  -0.0049  -0.0005   0.0011   0.0137   0.0088
  13 C   :3d2-   0.0338   0.0023  -0.0010  -0.0064  -0.1175   0.0712  -0.0491
  14 C   :3d1-  -0.0404   0.0098   0.0097   0.0035   0.0764  -0.0484   0.0660
  15 C   :2py    0.0009  -0.2773   0.3047   0.0004  -0.0094  -0.0784  -0.1668
  16 C   :2py   -0.0344  -0.0065  -0.0216   0.0129   0.0823  -0.0563  -0.0564
  18 C   :2py    0.0066  -0.0555  -0.0094  -0.0105  -0.6441   0.2771  -0.4317
  19 C   :3d2-   0.0004  -0.0178   0.0124   0.0002   0.0012   0.0175   0.0054
  20 C   :3d1-  -0.0037   0.0180   0.0078  -0.0008   0.0029  -0.0175  -0.0142
  21 C   :3d2-  -0.0010  -0.0017   0.0020   0.0089   0.0547  -0.0441   0.0139
  22 C   :3d1-  -0.0113   0.0032  -0.0002   0.0055   0.0275  -0.0038   0.0363
  23 C   :2py    0.0167  -0.4664   0.2963   0.0083   0.0139   0.2727   0.0598
  24 C   :2py    0.0069   0.0008  -0.0286  -0.0114  -0.0777   0.1738  -0.1050
  26 C   :2py   -0.0074  -0.0051   0.0173   0.0109   0.4882   0.3670   1.7584
  27 C   :3d1-  -0.0006  -0.0132   0.0145  -0.0001   0.0031  -0.0068  -0.0126
  28 C   :3d1-   0.0123  -0.0033   0.0005  -0.0075  -0.0784   0.0440  -0.0563
  29 N   :2py   -0.9153  -0.3073  -0.2594  -0.1401  -0.0885  -0.1032  -0.0861
  30 N   :2py   -0.0554  -0.0437  -0.0287   0.1182  -0.0579  -0.0601  -0.0089
  32 N   :2py   -0.1040  -0.0542  -0.0136  -0.0317  -0.5371  -1.4425   0.7762
  33 N   :3d1-  -0.0142  -0.0187  -0.0129  -0.0329  -0.0003  -0.0174  -0.0076
  34 N   :3d1-   0.0568  -0.0263  -0.0229   0.0743  -0.1915   0.0014  -0.0303
  35 O   :2py    0.1924   0.0408   0.0365  -0.6737  -0.1070  -0.0099   0.0362
  36 O   :2py    0.0021   0.0218   0.0183   0.0663   0.0089  -0.0161   0.0281
  38 O   :2py    0.0316   0.0210   0.0109   0.0130   0.5863   0.3992  -0.2591
  39 O   :3d2-  -0.0097  -0.0010  -0.0011   0.0458   0.0154   0.0032  -0.0028
  40 O   :3d1-   0.0204   0.0087   0.0070   0.0080   0.0112   0.0073   0.0010
  41 O   :3d2-  -0.0011  -0.0017  -0.0018   0.0219  -0.0171  -0.0035   0.0005
  42 O   :3d1-   0.0237   0.0059   0.0032   0.0212  -0.0391   0.0058   0.0059
  43 H   :2py   -0.0013   0.0055   0.0081  -0.0005   0.0014  -0.0135  -0.0017
  44 H   :2py    0.0238   0.0033  -0.0017  -0.0028  -0.0809   0.1084  -0.0807
  46 H   :2py    0.0038  -0.0047   0.0025   0.0051   0.0602  -0.0027  -0.0251
  47 H   :2py    0.0006  -0.0119   0.0071   0.0001  -0.0008   0.0100   0.0164
  48 H   :2py    0.0076  -0.0081   0.0011  -0.0020  -0.0318   0.0241  -0.0859

    Orbital         8        9       10       11       12       13       14
   1 C   :2py   -0.0934   0.0462   0.3927   0.0648   0.3655  -0.1106   0.1234
   2 C   :2py   -0.1129   0.2033   0.0408   0.1205   0.7232  -0.3428  -0.7181
   4 C   :2py    4.3302 -10.1298  -1.7778   2.6689  -4.1039  -4.5867   4.3214
   5 C   :3d1-  -0.0055   0.0050   0.0118  -0.0159   0.0162  -0.0057   0.0245
   6 C   :3d1-   0.1441  -0.1740   0.0335   0.6409  -0.4311  -0.4831   1.2089
   7 C   :2py    0.0951   0.0511  -0.2282  -0.0220  -0.3000   0.0398  -0.2364
   8 C   :2py    0.1589  -0.0466   0.0302   0.2110  -0.5042  -0.1019  -0.1786
  10 C   :2py   -4.6762   6.3637  -0.2060   1.2395   3.4756   1.5846  -2.5745
  11 C   :3d2-  -0.0054  -0.0076   0.0105   0.0029   0.0263   0.0042  -0.0318
  12 C   :3d1-  -0.0134   0.0013   0.0108  -0.0094  -0.0152  -0.0128   0.0233
  13 C   :3d2-   0.1430  -0.1028   0.0695   0.2260  -0.4122   0.0547   0.9775
  14 C   :3d1-  -0.0667   0.1066   0.0035  -0.0828   0.1343   0.2124  -0.2214
  15 C   :2py    0.0900  -0.0213  -0.1053  -0.0261   0.3436   0.0154   0.0727
  16 C   :2py   -0.1400   0.1366  -0.0709  -0.1391   0.4965   0.4434  -0.1230
  18 C   :2py    4.6746  -4.3874   3.2263  -2.1776  -3.2850   0.0581   0.5079
  19 C   :3d2-  -0.0108  -0.0049   0.0057   0.0040  -0.0232   0.0310   0.0084
  20 C   :3d1-   0.0062  -0.0039  -0.0120  -0.0003  -0.0072   0.0165  -0.0292
  21 C   :3d2-  -0.1785   0.1632  -0.0010  -0.0424   0.3532  -0.1361  -0.3717
  22 C   :3d1-  -0.0344   0.0850  -0.1438  -0.0318   0.1684   0.1439   0.1459
  23 C   :2py   -0.2739   0.0370   0.3028  -0.0050  -0.3817   0.0674   0.0978
  24 C   :2py    0.0647  -0.1847   0.0422   0.1144  -0.5949   0.5126   1.2005
  26 C   :2py   -4.1026   4.5085  -4.6644   1.7679   3.3693   0.5575   0.5465
  27 C   :3d1-   0.0018  -0.0067  -0.0025   0.0050   0.0244   0.0390   0.0456
  28 C   :3d1-   0.1749  -0.1623   0.0907   0.0194  -0.3552  -0.1198  -0.4031
  29 N   :2py    0.0900   0.0116  -0.1160   0.2116  -0.1003  -0.0208  -0.1008
  30 N   :2py   -0.0684  -0.0915  -0.0916   0.0166   0.0333   0.1203  -0.2343
  32 N   :2py   -1.0641   2.1994   0.8522  -5.9670   1.1534   3.0258  -2.2075
  33 N   :3d1-   0.0022  -0.0016  -0.0171  -0.0043  -0.0136   0.0124  -0.0289
  34 N   :3d1-   0.0068  -0.0790  -0.0594   0.2329  -0.0964  -0.1119   0.2308
  35 O   :2py   -0.0751  -0.0561   0.0125  -0.0153   0.0239  -0.0288   0.0281
  36 O   :2py   -0.0415  -0.0081   0.0195  -0.1477   0.0293   0.0384  -0.0360
  38 O   :2py    0.5383   0.1177  -0.0275   1.5706  -0.2103  -0.5500   0.3723
  41 O   :3d2-  -0.0091  -0.0070  -0.0053  -0.0033  -0.0050   0.0033   0.0295
  42 O   :3d1-  -0.0090  -0.0130   0.0046   0.0280   0.0064  -0.0213   0.0445
  43 H   :2py   -0.0069   0.0063  -0.0031   0.0056  -0.0092   0.0062  -0.0107
  44 H   :2py    0.2307  -0.1569  -0.0809   0.0402  -0.6433  -0.3688   1.6076
  45 H   :2py    0.0112  -0.0029   0.0050  -0.0045   0.0113   0.0123   0.0001
  46 H   :2py   -0.1672   0.1711  -0.1720  -0.0021   0.5008  -0.8284  -0.0861
  47 H   :2py   -0.0088   0.0086  -0.0044   0.0017  -0.0108   0.0146   0.0120
  48 H   :2py    0.1123  -0.1532   0.3050  -0.0725  -0.4893  -0.9761  -1.4801

 Molecular orbitals for symmetry species 4  (A2 )
 ------------------------------------------------

    Orbital         1        2        3        4        5        6        7
   1 C   :3d2-  -0.0446   0.0411  -0.0024   0.0008   0.0041  -0.0076   0.0256
   2 C   :3d2-  -0.0238   0.0202   0.0508   0.1704   0.0468  -0.0504  -0.5777
   3 C   :2py    0.3668  -0.4539   0.0223  -0.1646  -0.0845   0.0756  -0.1444
   4 C   :2py    0.0929  -0.0031   0.0480  -0.0005   0.0582   0.0464  -1.0348
   6 C   :2py    0.4937  -0.0637   0.0169   1.2516   1.4010  -2.6452  -0.7688
   7 C   :3d2-   0.0018  -0.0032   0.0006  -0.0084   0.0022   0.0020  -0.0377
   8 C   :3d1-   0.0259   0.0133   0.0014   0.0004  -0.0018   0.0017   0.0248
   9 C   :3d2-   0.0125  -0.0014   0.0163   0.0352  -0.0353   0.0309   0.2139
  10 C   :3d1-   0.0473  -0.0125   0.0059   0.0343  -0.0552   0.0157  -0.3774
  11 C   :2py   -0.4653  -0.3715  -0.0033  -0.0137   0.1749  -0.0626  -0.0532
  12 C   :2py   -0.0951  -0.0043  -0.0107  -0.0460   0.0116   0.0087  -0.6938
  14 C   :2py   -0.4710  -0.0074  -0.0133   0.0225  -2.2186   2.1902  -0.2412
  15 C   :3d2-  -0.0025  -0.0015   0.0002  -0.0061   0.0043   0.0002  -0.0228
  16 C   :3d1-   0.0199  -0.0184   0.0010  -0.0038   0.0003  -0.0030  -0.0264
  17 C   :3d2-  -0.0061  -0.0024  -0.0066   0.0187   0.0278  -0.0256  -0.0115
  18 C   :3d1-   0.0281  -0.0037  -0.0051  -0.0449  -0.0229   0.0129   0.3042
  19 C   :3d2-   0.0439   0.0282   0.0002  -0.0066  -0.0024  -0.0013   0.0088
  20 C   :3d2-   0.0178   0.0069   0.0008   0.0378  -0.1045   0.0516  -0.4951
  21 N   :3d2-  -0.0039   0.0021   0.0245  -0.0035  -0.0052  -0.0094  -0.0028
  22 N   :3d2-  -0.0192   0.0033  -0.0296  -0.0022   0.0289   0.0621  -0.0302
  23 O   :2py   -0.0008   0.0128   0.8252   0.0638   0.0777   0.1163   0.0132
  24 O   :2py    0.0143   0.0005   0.1217   0.0639   0.0666   0.1078   0.0186
  26 O   :2py   -0.0646   0.0154   0.0261  -0.6934  -1.0338  -2.3412   0.1639
  28 O   :3d1-   0.0005  -0.0002  -0.0107  -0.0010  -0.0019  -0.0046   0.0001
  29 O   :3d2-  -0.0028   0.0003  -0.0300  -0.0013   0.0023   0.0097  -0.0217
  30 O   :3d1-   0.0007  -0.0013  -0.0228   0.0013   0.0062   0.0172   0.0251
  31 H   :2py    0.0130  -0.0125   0.0007   0.0068   0.0006  -0.0068  -0.0141
  32 H   :2py    0.0278  -0.0108   0.0013  -0.1004  -0.1038   0.1397   1.3848
  33 H   :2py   -0.0148  -0.0097  -0.0004   0.0057  -0.0077   0.0041  -0.0092
  34 H   :2py   -0.0195  -0.0077  -0.0039  -0.0127   0.1753  -0.1048   0.8250

    Orbital         8        9       10       11       12       13
   1 C   :3d2-   0.0233  -0.0186   0.0406   0.0606  -0.0232  -0.0879
   2 C   :3d2-   0.3682   0.0968  -0.7847  -0.8452  -0.9778   1.9587
   3 C   :2py   -0.1518  -0.0819  -0.2376  -0.2632   0.3764   0.3118
   4 C   :2py   -0.1353   0.0771  -1.4101   0.6548  -0.8603   0.9952
   6 C   :2py   -1.5358   0.5636  -0.4070   0.0656   0.0933  -0.3915
   7 C   :3d2-  -0.0324   0.0136   0.0151   0.0148  -0.0075  -0.0326
   8 C   :3d1-  -0.0028  -0.0088  -0.0276   0.0296   0.0220   0.0271
   9 C   :3d2-   0.8789   0.0848  -0.7294  -1.1372   0.7176   2.3704
  10 C   :3d1-  -0.0687   0.9697   0.6096  -0.2665  -2.0224   0.4008
  11 C   :2py    0.1876   0.0152   0.1597  -0.3807  -0.1355  -0.2194
  12 C   :2py    0.7240   0.3934   1.3882  -0.2296  -2.2281   1.9316
  14 C   :2py    1.7457  -0.4399   0.4439  -0.0643  -0.1559   0.5698
  15 C   :3d2-   0.0453  -0.0057  -0.0064   0.0235   0.0151   0.0133
  16 C   :3d1-   0.0097  -0.0106  -0.0230  -0.0125   0.0388   0.0407
  17 C   :3d2-  -0.7839   0.1922   0.1764  -1.1909  -0.6697  -2.2860
  18 C   :3d1-  -0.4162   0.1991   1.0103  -0.4228  -0.1733  -1.2551
  19 C   :3d2-  -0.0345   0.0008  -0.0171   0.0686   0.0381   0.0247
  20 C   :3d2-   0.0277  -0.3639   0.8204  -1.1587  -1.3560   1.3008
  21 N   :3d2-   0.0036  -0.0081  -0.0135  -0.0066  -0.0107   0.0119
  22 N   :3d2-  -0.1718  -0.4603  -0.2968  -0.0524  -0.6541  -0.1900
  23 O   :2py    0.0197   0.0589   0.1044   0.0504   0.1834  -0.0350
  24 O   :2py    0.1014   0.1627   0.0448  -0.0632   0.1781   0.2143
  26 O   :2py   -0.0526   0.5851   0.0836  -0.1010   0.2466   0.0065
  28 O   :3d1-   0.0022   0.0069   0.0041   0.0019   0.0111   0.0022
  29 O   :3d2-  -0.0376  -0.0429  -0.0296   0.0209  -0.1215  -0.0681
  30 O   :3d1-  -0.0085   0.0220   0.0734   0.0119   0.1865  -0.0828
  31 H   :2py   -0.0105  -0.0046  -0.0100   0.0143  -0.0022   0.0014
  32 H   :2py    1.3096  -0.6085  -0.5372  -1.0857   1.2220   1.2119
  33 H   :2py    0.0120  -0.0006   0.0103   0.0068  -0.0126   0.0204
  34 H   :2py   -1.7716   0.3146   0.1414  -1.2694  -0.1652  -2.0682

 Printout of CI-coefficients abs greater than 0.10000 for root  2
 *** NOTE: this root is the reference state ***


  Printout of coefficients in interval   0.3162E+00 to  0.1000E+01
  ==============================================================

 Coefficient of determinant        48 is      0.99785105  9.97851054E-01
 alpha-string:  1     3  4  5  6  7
  beta-string:  1     3  4     6


  Printout of coefficients in interval   0.1000E+00 to  0.3162E+00
  ==============================================================
   ( no coefficients )

 Norm of printed part of CI vector ..      0.99570673

  Magnitude of CI coefficients
  ============================

  ( Ranges are relative to norm of vector :  1.00E+00 )

  10- 1 to 10- 0         1    0.99570673E+00    0.99570673E+00
  10- 2 to 10- 1         3    0.42318622E-02    0.99993859E+00
  10- 3 to 10- 2         5    0.58977033E-04    0.99999756E+00
  10- 4 to 10- 3        23    0.23765602E-05    0.99999994E+00
  10- 5 to 10- 4        17    0.58981424E-07    0.10000000E+01
  10- 6 to 10- 5         6    0.11453025E-09    0.10000000E+01
  10- 7 to 10- 6         1    0.17614488E-12    0.10000000E+01
  Number of coefficients less than 10^-11 times norm is             0

  Total CPU  time used in SIRIUS :   8 hours 21 minutes 36 seconds
  Total wall time used in SIRIUS :   8 hours 21 minutes 57 seconds

 
     Date and time (Linux)  : Sat Dec 21 08:48:01 2019
     Host name              : Lab2-333-NPs                            

 NOTE:    3 warnings have been issued.
 Check output, result, and error files for "WARNING".


                     .---------------------------------------.
                     | End of Wave Function Section (SIRIUS) |
                     `---------------------------------------'


@ - DALTON aborted because wave function not converged!

  --- SEVERE ERROR, PROGRAM WILL BE ABORTED ---
     Date and time (Linux)  : Sat Dec 21 08:48:01 2019
     Host name              : Lab2-333-NPs                            

 Reason: DALTON aborted because wave function not converged

  Total CPU  time used in DALTON:   8 hours 21 minutes 36 seconds
  Total wall time used in DALTON:   8 hours 21 minutes 58 seconds


 QTRACE dump of internal trace stack

 ========================
      level    module
 ========================
          3    SIRIUS      
          2    DALTON      
          1    DALTON main 
 ========================

