

     ************************************************************************
     *************** Dalton - An Electronic Structure Program ***************
     ************************************************************************

    This is output from DALTON release Dalton2018.1 (2019)
         ( Web site: http://daltonprogram.org )

   ----------------------------------------------------------------------------

    NOTE:
     
    Dalton is an experimental code for the evaluation of molecular
    properties using (MC)SCF, DFT, CI, and CC wave functions.
    The authors accept no responsibility for the performance of
    the code or for the correctness of the results.
     
    The code (in whole or part) is provided under a licence and
    is not to be reproduced for further distribution without
    the written permission of the authors or their representatives.
     
    See the home page "http://daltonprogram.org" for further information.
     
    If results obtained with this code are published,
    the appropriate citations would be both of:
     
       K. Aidas, C. Angeli, K. L. Bak, V. Bakken, R. Bast,
       L. Boman, O. Christiansen, R. Cimiraglia, S. Coriani,
       P. Dahle, E. K. Dalskov, U. Ekstroem,
       T. Enevoldsen, J. J. Eriksen, P. Ettenhuber, B. Fernandez,
       L. Ferrighi, H. Fliegl, L. Frediani, K. Hald, A. Halkier,
       C. Haettig, H. Heiberg, T. Helgaker, A. C. Hennum,
       H. Hettema, E. Hjertenaes, S. Hoest, I.-M. Hoeyvik,
       M. F. Iozzi, B. Jansik, H. J. Aa. Jensen, D. Jonsson,
       P. Joergensen, J. Kauczor, S. Kirpekar,
       T. Kjaergaard, W. Klopper, S. Knecht, R. Kobayashi, H. Koch,
       J. Kongsted, A. Krapp, K. Kristensen, A. Ligabue,
       O. B. Lutnaes, J. I. Melo, K. V. Mikkelsen, R. H. Myhre,
       C. Neiss, C. B. Nielsen, P. Norman, J. Olsen,
       J. M. H. Olsen, A. Osted, M. J. Packer, F. Pawlowski,
       T. B. Pedersen, P. F. Provasi, S. Reine, Z. Rinkevicius,
       T. A. Ruden, K. Ruud, V. Rybkin, P. Salek, C. C. M. Samson,
       A. Sanchez de Meras, T. Saue, S. P. A. Sauer,
       B. Schimmelpfennig, K. Sneskov, A. H. Steindal,
       K. O. Sylvester-Hvid, P. R. Taylor, A. M. Teale,
       E. I. Tellgren, D. P. Tew, A. J. Thorvaldsen, L. Thoegersen,
       O. Vahtras, M. A. Watson, D. J. D. Wilson, M. Ziolkowski
       and H. Agren,
       "The Dalton quantum chemistry program system",
       WIREs Comput. Mol. Sci. 2014, 4:269–284 (doi: 10.1002/wcms.1172)
     
    and
     
       Dalton, a molecular electronic structure program,
       Release Dalton2018.1 (2019), see http://daltonprogram.org
   ----------------------------------------------------------------------------

    Authors in alphabetical order (major contribution(s) in parenthesis):

  Kestutis Aidas,           Vilnius University,           Lithuania   (QM/MM)
  Celestino Angeli,         University of Ferrara,        Italy       (NEVPT2)
  Keld L. Bak,              UNI-C,                        Denmark     (AOSOPPA, non-adiabatic coupling, magnetic properties)
  Vebjoern Bakken,          University of Oslo,           Norway      (DALTON; geometry optimizer, symmetry detection)
  Radovan Bast,             UiT The Arctic U. of Norway,  Norway      (DALTON installation and execution frameworks)
  Pablo Baudin,             University of Valencia,       Spain       (Cholesky excitation energies)
  Linus Boman,              NTNU,                         Norway      (Cholesky decomposition and subsystems)
  Ove Christiansen,         Aarhus University,            Denmark     (CC module)
  Renzo Cimiraglia,         University of Ferrara,        Italy       (NEVPT2)
  Sonia Coriani,            Technical Univ. of Denmark,   Denmark     (CC module, MCD in RESPONS)
  Janusz Cukras,            University of Trieste,        Italy       (MChD in RESPONS)
  Paal Dahle,               University of Oslo,           Norway      (Parallelization)
  Erik K. Dalskov,          UNI-C,                        Denmark     (SOPPA)
  Thomas Enevoldsen,        Univ. of Southern Denmark,    Denmark     (SOPPA)
  Janus J. Eriksen,         Aarhus University,            Denmark     (Polarizable embedding model, TDA)
  Rasmus Faber,             University of Copenhagen,     Denmark     (Vib.avg. NMR with SOPPA, parallel AO-SOPPA)
  Tobias Fahleson,          KTH Stockholm,                Sweden      (Damped cubic response)
  Berta Fernandez,          U. of Santiago de Compostela, Spain       (doublet spin, ESR in RESPONS)
  Lara Ferrighi,            Aarhus University,            Denmark     (PCM Cubic response)
  Heike Fliegl,             University of Oslo,           Norway      (CCSD(R12))
  Luca Frediani,            UiT The Arctic U. of Norway,  Norway      (PCM)
  Bin Gao,                  UiT The Arctic U. of Norway,  Norway      (Gen1Int library)
  Christof Haettig,         Ruhr-University Bochum,       Germany     (CC module)
  Kasper Hald,              Aarhus University,            Denmark     (CC module)
  Asger Halkier,            Aarhus University,            Denmark     (CC module)
  Frederik Beyer Hansen,    University of Copenhagen,     Denmark     (Parallel AO-SOPPA)
  Erik D. Hedegaard,        Univ. of Southern Denmark,    Denmark     (Polarizable embedding model, QM/MM)
  Hanne Heiberg,            University of Oslo,           Norway      (geometry analysis, selected one-electron integrals)
  Trygve Helgaker,          University of Oslo,           Norway      (DALTON; ABACUS, ERI, DFT modules, London, and much more)
  Alf Christian Hennum,     University of Oslo,           Norway      (Parity violation)
  Hinne Hettema,            University of Auckland,       New Zealand (quadratic response in RESPONS; SIRIUS supersymmetry)
  Eirik Hjertenaes,         NTNU,                         Norway      (Cholesky decomposition)
  Pi A. B. Haase,           University of Copenhagen,     Denmark     (Triplet AO-SOPPA)
  Maria Francesca Iozzi,    University of Oslo,           Norway      (RPA)
  Christoph Jacob           TU Braunschweig               Germany     (Frozen density embedding model)
  Brano Jansik              Technical Univ. of Ostrava    Czech Rep.  (DFT cubic response)
  Hans Joergen Aa. Jensen,  Univ. of Southern Denmark,    Denmark     (DALTON; SIRIUS, RESPONS, ABACUS modules, London, and much more)
  Dan Jonsson,              UiT The Arctic U. of Norway,  Norway      (cubic response in RESPONS module)
  Poul Joergensen,          Aarhus University,            Denmark     (RESPONS, ABACUS, and CC modules)
  Maciej Kaminski,          University of Warsaw,         Poland      (CPPh in RESPONS)
  Joanna Kauczor,           Linkoeping University,        Sweden      (Complex polarization propagator (CPP) module)
  Sheela Kirpekar,          Univ. of Southern Denmark,    Denmark     (Mass-velocity & Darwin integrals)
  Wim Klopper,              KIT Karlsruhe,                Germany     (R12 code in CC, SIRIUS, and ABACUS modules)
  Stefan Knecht,            ETH Zurich,                   Switzerland (Parallel CI and MCSCF)
  Rika Kobayashi,           Australian National Univ.,    Australia   (DIIS in CC, London in MCSCF)
  Henrik Koch,              NTNU,                         Norway      (CC module, Cholesky decomposition)
  Jacob Kongsted,           Univ. of Southern Denmark,    Denmark     (Polarizable embedding model, QM/MM)
  Andrea Ligabue,           University of Modena,         Italy       (CTOCD, AOSOPPA)
  Nanna H. List             Univ. of Southern Denmark,    Denmark     (Polarizable embedding model)
  Ola B. Lutnaes,           University of Oslo,           Norway      (DFT Hessian)
  Juan I. Melo,             University of Buenos Aires,   Argentina   (LRESC, Relativistic Effects on NMR Shieldings)
  Kurt V. Mikkelsen,        University of Copenhagen,     Denmark     (MC-SCRF and QM/MM)
  Rolf H. Myhre,            NTNU,                         Norway      (Subsystems and CC3)
  Christian Neiss,          Univ. Erlangen-Nuernberg,     Germany     (CCSD(R12))
  Christian B. Nielsen,     University of Copenhagen,     Denmark     (QM/MM)
  Patrick Norman,           KTH Stockholm,                Sweden      (Cubic response and complex frequency response in RESPONS)
  Jeppe Olsen,              Aarhus University,            Denmark     (SIRIUS CI/density modules)
  Jogvan Magnus H. Olsen,   Univ. of Southern Denmark,    Denmark     (Polarizable embedding model, QM/MM)
  Anders Osted,             Copenhagen University,        Denmark     (QM/MM)
  Martin J. Packer,         University of Sheffield,      UK          (SOPPA)
  Filip Pawlowski,          Kazimierz Wielki University,  Poland      (CC3)
  Morten N. Pedersen,       Univ. of Southern Denmark,    Denmark     (Polarizable embedding model)
  Thomas B. Pedersen,       University of Oslo,           Norway      (Cholesky decomposition)
  Patricio F. Provasi,      University of Northeastern,   Argentina   (Analysis of coupling constants in localized orbitals)
  Zilvinas Rinkevicius,     KTH Stockholm,                Sweden      (open-shell DFT, ESR)
  Elias Rudberg,            KTH Stockholm,                Sweden      (DFT grid and basis info)
  Torgeir A. Ruden,         University of Oslo,           Norway      (Numerical derivatives in ABACUS)
  Kenneth Ruud,             UiT The Arctic U. of Norway,  Norway      (DALTON; ABACUS magnetic properties and much more)
  Pawel Salek,              KTH Stockholm,                Sweden      (DALTON; DFT code)
  Claire C. M. Samson       University of Karlsruhe       Germany     (Boys localization, r12 integrals in ERI)
  Alfredo Sanchez de Meras, University of Valencia,       Spain       (CC module, Cholesky decomposition)
  Trond Saue,               Paul Sabatier University,     France      (direct Fock matrix construction)
  Stephan P. A. Sauer,      University of Copenhagen,     Denmark     (SOPPA(CCSD), SOPPA prop., AOSOPPA, vibrational g-factors)
  Andre S. P. Gomes,        CNRS/Universite de Lille,     France      (Frozen density embedding model)
  Bernd Schimmelpfennig,    Forschungszentrum Karlsruhe,  Germany     (AMFI module)
  Kristian Sneskov,         Aarhus University,            Denmark     (Polarizable embedding model, QM/MM)
  Arnfinn H. Steindal,      UiT The Arctic U. of Norway,  Norway      (parallel QM/MM, Polarizable embedding model)
  Casper Steinmann,         Univ. of Southern Denmark,    Denmark     (QFIT, Polarizable embedding model)
  K. O. Sylvester-Hvid,     University of Copenhagen,     Denmark     (MC-SCRF)
  Peter R. Taylor,          VLSCI/Univ. of Melbourne,     Australia   (Symmetry handling ABACUS, integral transformation)
  Andrew M. Teale,          University of Nottingham,     England     (DFT-AC, DFT-D)
  David P. Tew,             University of Bristol,        England     (CCSD(R12))
  Olav Vahtras,             KTH Stockholm,                Sweden      (triplet response, spin-orbit, ESR, TDDFT, open-shell DFT)
  Lucas Visscher,           Vrije Universiteit Amsterdam, Netherlands (Frozen density embedding model)
  David J. Wilson,          La Trobe University,          Australia   (DFT Hessian and DFT magnetizabilities)
  Hans Agren,               KTH Stockholm,                Sweden      (SIRIUS module, RESPONS, MC-SCRF solvation model)
 --------------------------------------------------------------------------------

     Date and time (Linux)  : Fri Dec 20 10:54:20 2019
     Host name              : Lab2-333-NPs                            

 * Work memory size             :  1024000000 =  7.629 gigabytes.

 * Directories for basis set searches:
   1) /home/lab333/dalton/build_2018_atlas
   2) /home/lab333/dalton/build_2018_atlas/basis


Compilation information
-----------------------

 Who compiled             | lab333
 Host                     | Lab2-333-NPs
 System                   | Linux-4.4.0-43-Microsoft
 CMake generator          | Unix Makefiles
 Processor                | x86_64
 64-bit integers          | OFF
 MPI                      | OFF
 Fortran compiler         | /usr/bin/gfortran
 Fortran compiler version | GNU Fortran (Ubuntu 7.3.0-27ubuntu1~18.04) 7.3.0
 C compiler               | /usr/bin/gcc
 C compiler version       | gcc (Ubuntu 7.3.0-27ubuntu1~18.04) 7.3.0
 C++ compiler             | /usr/bin/g++
 C++ compiler version     | g++ (Ubuntu 7.3.0-27ubuntu1~18.04) 7.3.0
 BLAS                     | /usr/lib/x86_64-linux-gnu/libf77blas.so;/usr/lib/x
                          | 86_64-linux-gnu/libcblas.so;/usr/lib/x86_64-linux-
                          | gnu/libatlas.so
 LAPACK                   | /usr/lib/x86_64-linux-gnu/libatlas.so;/usr/lib/x86
                          | _64-linux-gnu/atlas/liblapack.so
 Static linking           | OFF
 Last Git revision        | da625bf48c74028e805616daee31bc5d76b3a20d
 Git branch               | (HEAD detached at Dalton2018.1)
 Configuration time       | 2019-01-18 10:20:51.437510


   Content of the .dal input file
 ----------------------------------

**DALTON INPUT
.RUN RESPONSE
.DIRECT
**WAVE FUNCTIONS
.HF
.MP2
.MCSCF
*CONFIGURATION INPUT
.SPIN MULTIPLICITY
1
.SYMMETRY
1
.INACTIVE ORBITALS
15 10 2 0
.CAS SPACE
1 1 2 3
.ELECTRONS
10
*ORBITAL INPUT
.MOSTART
.HUCKEL
*OPTIMIZATION
.DETERMINANTS
.STATE
2
*CI VECTOR
.PLUS COMBINATIONS
**RESPONSE
*CUBIC
.DIPLEN
.BFREQ
1
0.0584
.CFREQ
1
-0.0584
.DFREQ
1
0.0584
**END OF DALTON INPUT


   Content of the .mol file
 ----------------------------

BASIS
aug-cc-pCVDZ
 nitrobenzene
 Generated by the Dalton Input File Plugin for Avogadro
Atomtypes=4 Angstrom Generators=2 X Y
Charge=6.0 Atoms=4
C        0.0000000000            0.0000000000           -0.0265759623
C       -1.2190534920            0.0000000000           -0.6979856948
C       -1.2105095870            0.0000000000           -2.0897394457
C        0.0000000000            0.0000000000           -2.7841484631
Charge=7.0 Atoms=1
N        0.0000000000            0.0000000000            1.4549291696
Charge=8.0 Atoms=1
O       0.6681994515871787            0.0            2.4813571197184965
Charge=1.0 Atoms=3
H       -2.1410602955            0.0000000000           -0.1327964319
H       -2.1492827751            0.0000000000           -2.6311811056
H        0.0000000000            0.0000000000           -3.8683953478


       *******************************************************************
       *********** Output from DALTON general input processing ***********
       *******************************************************************

 --------------------------------------------------------------------------------
   Overall default print level:    0
   Print level for DALTON.STAT:    1

    AO-direct calculation (in sections where implemented)
    HERMIT 1- and 2-electron integral sections will be executed
    "Old" integral transformation used (limited to max 255 basis functions)
    Wave function sections will be executed (SIRIUS module)
    Dynamic molecular response properties section will be executed (RESPONSE module)
 --------------------------------------------------------------------------------


   ****************************************************************************
   *************** Output of molecule and basis set information ***************
   ****************************************************************************


    The two title cards from your ".mol" input:
    ------------------------------------------------------------------------
 1:  nitrobenzene                                                           
 2:  Generated by the Dalton Input File Plugin for Avogadro                 
    ------------------------------------------------------------------------

  Coordinates are entered in Angstrom and converted to atomic units.
          - Conversion factor : 1 bohr = 0.52917721 A

  Atomic type no.    1
  --------------------
  Nuclear charge:   6.00000
  Number of symmetry independent centers:    4
  Number of basis sets to read;    2
  Basis set file used for this atomic type with Z =   6 :
     "/home/lab333/dalton/build_2018_atlas/basis/aug-cc-pCVDZ"

  Atomic type no.    2
  --------------------
  Nuclear charge:   7.00000
  Number of symmetry independent centers:    1
  Number of basis sets to read;    2
  Basis set file used for this atomic type with Z =   7 :
     "/home/lab333/dalton/build_2018_atlas/basis/aug-cc-pCVDZ"

  Atomic type no.    3
  --------------------
  Nuclear charge:   8.00000
  Number of symmetry independent centers:    1
  Number of basis sets to read;    2
  Basis set file used for this atomic type with Z =   8 :
     "/home/lab333/dalton/build_2018_atlas/basis/aug-cc-pCVDZ"

  Atomic type no.    4
  --------------------
  Nuclear charge:   1.00000
  Number of symmetry independent centers:    3
  Number of basis sets to read;    2
  Basis set file used for this atomic type with Z =   1 :
     "/home/lab333/dalton/build_2018_atlas/basis/aug-cc-pCVDZ"


                         SYMGRP: Point group information
                         -------------------------------

@    Point group: C2v

@  * The irrep name for each symmetry:    1: A1     2: B1     3: B2     4: A2 

   * The point group was generated by:

      Reflection in the yz-plane
      Reflection in the xz-plane

   * Group multiplication table

        |  E   C2z  Oxz  Oyz
   -----+--------------------
     E  |  E   C2z  Oxz  Oyz
    C2z | C2z   E   Oyz  Oxz
    Oxz | Oxz  Oyz   E   C2z
    Oyz | Oyz  Oxz  C2z   E 

   * Character table

        |  E   C2z  Oxz  Oyz
   -----+--------------------
    A1  |   1    1    1    1
    B1  |   1   -1    1   -1
    B2  |   1   -1   -1    1
    A2  |   1    1   -1   -1

   * Direct product table

        | A1   B1   B2   A2 
   -----+--------------------
    A1  | A1   B1   B2   A2 
    B1  | B1   A1   A2   B2 
    B2  | B2   A2   A1   B1 
    A2  | A2   B2   B1   A1 


                                 Isotopic Masses
                                 ---------------

                           C          12.000000
                           C   _1     12.000000
                           C   _2     12.000000
                           C   _1     12.000000
                           C   _2     12.000000
                           C          12.000000
                           N          14.003074
                           O   _1     15.994915
                           O   _2     15.994915
                           H   _1      1.007825
                           H   _2      1.007825
                           H   _1      1.007825
                           H   _2      1.007825
                           H           1.007825

                       Total mass:   123.032029 amu
                       Natural abundance:  92.716 %

 Center-of-mass coordinates (a.u.):    0.000000    0.000000   -0.159007


  Atoms and basis sets
  --------------------

  Number of atom types :    4
  Total number of atoms:   14

  Basis set used is "aug-cc-pCVDZ" from the basis set library.

  label    atoms   charge   prim   cont     basis
  ----------------------------------------------------------------------
  C           6    6.0000    39    27      [11s6p2d|5s4p2d]                                   
  N           1    7.0000    39    27      [11s6p2d|5s4p2d]                                   
  O           2    8.0000    39    27      [11s6p2d|5s4p2d]                                   
  H           5    1.0000    11     9      [5s2p|3s2p]                                        
  ----------------------------------------------------------------------
  total:     14   64.0000   406   288
  ----------------------------------------------------------------------
  Spherical harmonic basis used.

  Threshold for neglecting AO integrals:  1.00D-12


  Symmetry Coordinates
  --------------------

  Number of coordinates in each symmetry:    14   14    9    5


   Interatomic separations (in Angstrom):
   --------------------------------------

            C           C   _1      C   _2      C   _1      C   _2      C     
            ------      ------      ------      ------      ------      ------
 C     :    0.000000
 C   _1:    1.391719    0.000000
 C   _2:    1.391719    2.438107    0.000000
 C   _1:    2.392065    1.391780    2.799956    0.000000
 C   _2:    2.392065    2.799956    1.391780    2.421019    0.000000
 C     :    2.757573    2.416230    2.416230    1.395542    1.395542    0.000000
 N     :    1.481505    2.474093    2.474093    3.745665    3.745665    4.239078
 O   _1:    2.595423    3.697289    3.226711    4.942112    4.603154    5.307734
 O   _2:    2.595423    3.226711    3.697289    4.603154    4.942112    5.307734
 H   _1:    2.143694    1.081451    3.407316    2.166922    3.881063    3.407904
 H   _2:    2.143694    3.407316    1.081451    3.881063    2.166922    3.407904
 H   _1:    3.376890    2.145360    3.883675    1.083722    3.403140    2.154719
 H   _2:    3.376890    3.883675    2.145360    3.403140    1.083722    2.154719
 H     :    3.841819    3.396703    3.396703    2.151500    2.151500    1.084247

            N           O   _1      O   _2      H   _1      H   _2      H   _1
            ------      ------      ------      ------      ------      ------
 N     :    0.000000
 O   _1:    1.224763    0.000000
 O   _2:    1.224763    1.336399    0.000000
 H   _1:    2.665523    3.837413    3.000520    0.000000
 H   _2:    2.665523    3.000520    3.837413    4.282121    0.000000
 H   _1:    4.616894    5.837487    5.322749    2.498398    4.964773    0.000000
 H   _2:    4.616894    5.322749    5.837487    4.964773    2.498398    4.298566
 H     :    5.323325    6.384814    6.384814    4.305675    4.305675    2.479943

            H   _2      H     
            ------      ------
 H   _2:    0.000000
 H     :    2.479943    0.000000


  Max    interatomic separation is    6.3848 Angstrom (   12.0655 Bohr)
  between atoms   14 and    8, "H     " and "O   _1".

  Min HX interatomic separation is    1.0815 Angstrom (    2.0436 Bohr)

  Min YX interatomic separation is    1.2248 Angstrom (    2.3145 Bohr)


  Bond distances (Angstrom):
  --------------------------

                  atom 1     atom 2       distance
                  ------     ------       --------
  bond distance:  C   _1     C            1.391719
  bond distance:  C   _2     C            1.391719
  bond distance:  C   _1     C   _1       1.391780
  bond distance:  C   _2     C   _2       1.391780
  bond distance:  C          C   _1       1.395542
  bond distance:  C          C   _2       1.395542
  bond distance:  N          C            1.481505
  bond distance:  O   _1     N            1.224763
  bond distance:  O   _2     N            1.224763
  bond distance:  O   _2     O   _1       1.336399
  bond distance:  H   _1     C   _1       1.081451
  bond distance:  H   _2     C   _2       1.081451
  bond distance:  H   _1     C   _1       1.083722
  bond distance:  H   _2     C   _2       1.083722
  bond distance:  H          C            1.084247


  Bond angles (degrees):
  ----------------------

                  atom 1     atom 2     atom 3         angle
                  ------     ------     ------         -----
  bond angle:     C   _1     C          C   _2       122.311
  bond angle:     C   _1     C          N            118.844
  bond angle:     C   _2     C          N            118.844
  bond angle:     C          C   _1     C   _1       118.493
  bond angle:     C          C   _1     H   _1       119.647
  bond angle:     C   _1     C   _1     H   _1       121.860
  bond angle:     C          C   _2     C   _2       118.493
  bond angle:     C          C   _2     H   _2       119.647
  bond angle:     C   _2     C   _2     H   _2       121.860
  bond angle:     C   _1     C   _1     C            120.192
  bond angle:     C   _1     C   _1     H   _1       119.623
  bond angle:     C          C   _1     H   _1       120.185
  bond angle:     C   _2     C   _2     C            120.192
  bond angle:     C   _2     C   _2     H   _2       119.623
  bond angle:     C          C   _2     H   _2       120.185
  bond angle:     C   _1     C          C   _2       120.319
  bond angle:     C   _1     C          H            119.841
  bond angle:     C   _2     C          H            119.841
  bond angle:     C          N          O   _1       146.936
  bond angle:     C          N          O   _2       146.936
  bond angle:     O   _1     N          O   _2        66.128
  bond angle:     N          O   _1     O   _2        56.936
  bond angle:     N          O   _2     O   _1        56.936




 Principal moments of inertia (u*A**2) and principal axes
 --------------------------------------------------------

   IA     103.668499          0.000000    0.000000    1.000000
   IB     464.335187          1.000000    0.000000    0.000000
   IC     568.003686          0.000000    1.000000    0.000000


 Rotational constants
 --------------------

@    The molecule is planar.

               A                   B                   C

           4874.9525           1088.3927            889.7460 MHz
            0.162611            0.036305            0.029679 cm-1


@  Nuclear repulsion energy :  412.588060063180 Hartree


  Symmetry Orbitals
  -----------------

  Number of orbitals in each symmetry:         115   91   48   34


  Symmetry  A1 ( 1)

    1     C        1s         1
    2     C        1s         2
    3     C        1s         3
    4     C        1s         4
    5     C        1s         5
    6     C        2pz        8
    7     C        2pz       11
    8     C        2pz       14
    9     C        2pz       17
   10     C        3d0       20
   11     C        3d2+      22
   12     C        3d0       25
   13     C        3d2+      27
   14     C        1s        28 +   29
   15     C        1s        30 +   31
   16     C        1s        32 +   33
   17     C        1s        34 +   35
   18     C        1s        36 +   37
   19     C        2px       38 -   39
   20     C        2pz       42 +   43
   21     C        2px       44 -   45
   22     C        2pz       48 +   49
   23     C        2px       50 -   51
   24     C        2pz       54 +   55
   25     C        2px       56 -   57
   26     C        2pz       60 +   61
   27     C        3d0       66 +   67
   28     C        3d1+      68 -   69
   29     C        3d2+      70 +   71
   30     C        3d0       76 +   77
   31     C        3d1+      78 -   79
   32     C        3d2+      80 +   81
   33     C        1s        82 +   83
   34     C        1s        84 +   85
   35     C        1s        86 +   87
   36     C        1s        88 +   89
   37     C        1s        90 +   91
   38     C        2px       92 -   93
   39     C        2pz       96 +   97
   40     C        2px       98 -   99
   41     C        2pz      102 +  103
   42     C        2px      104 -  105
   43     C        2pz      108 +  109
   44     C        2px      110 -  111
   45     C        2pz      114 +  115
   46     C        3d0      120 +  121
   47     C        3d1+     122 -  123
   48     C        3d2+     124 +  125
   49     C        3d0      130 +  131
   50     C        3d1+     132 -  133
   51     C        3d2+     134 +  135
   52     C        1s       136
   53     C        1s       137
   54     C        1s       138
   55     C        1s       139
   56     C        1s       140
   57     C        2pz      143
   58     C        2pz      146
   59     C        2pz      149
   60     C        2pz      152
   61     C        3d0      155
   62     C        3d2+     157
   63     C        3d0      160
   64     C        3d2+     162
   65     N        1s       163
   66     N        1s       164
   67     N        1s       165
   68     N        1s       166
   69     N        1s       167
   70     N        2pz      170
   71     N        2pz      173
   72     N        2pz      176
   73     N        2pz      179
   74     N        3d0      182
   75     N        3d2+     184
   76     N        3d0      187
   77     N        3d2+     189
   78     O        1s       190 +  191
   79     O        1s       192 +  193
   80     O        1s       194 +  195
   81     O        1s       196 +  197
   82     O        1s       198 +  199
   83     O        2px      200 -  201
   84     O        2pz      204 +  205
   85     O        2px      206 -  207
   86     O        2pz      210 +  211
   87     O        2px      212 -  213
   88     O        2pz      216 +  217
   89     O        2px      218 -  219
   90     O        2pz      222 +  223
   91     O        3d0      228 +  229
   92     O        3d1+     230 -  231
   93     O        3d2+     232 +  233
   94     O        3d0      238 +  239
   95     O        3d1+     240 -  241
   96     O        3d2+     242 +  243
   97     H        1s       244 +  245
   98     H        1s       246 +  247
   99     H        1s       248 +  249
  100     H        2px      250 -  251
  101     H        2pz      254 +  255
  102     H        2px      256 -  257
  103     H        2pz      260 +  261
  104     H        1s       262 +  263
  105     H        1s       264 +  265
  106     H        1s       266 +  267
  107     H        2px      268 -  269
  108     H        2pz      272 +  273
  109     H        2px      274 -  275
  110     H        2pz      278 +  279
  111     H        1s       280
  112     H        1s       281
  113     H        1s       282
  114     H        2pz      285
  115     H        2pz      288


  Symmetry  B1 ( 2)

  116     C        2px        6
  117     C        2px        9
  118     C        2px       12
  119     C        2px       15
  120     C        3d1+      21
  121     C        3d1+      26
  122     C        1s        28 -   29
  123     C        1s        30 -   31
  124     C        1s        32 -   33
  125     C        1s        34 -   35
  126     C        1s        36 -   37
  127     C        2px       38 +   39
  128     C        2pz       42 -   43
  129     C        2px       44 +   45
  130     C        2pz       48 -   49
  131     C        2px       50 +   51
  132     C        2pz       54 -   55
  133     C        2px       56 +   57
  134     C        2pz       60 -   61
  135     C        3d0       66 -   67
  136     C        3d1+      68 +   69
  137     C        3d2+      70 -   71
  138     C        3d0       76 -   77
  139     C        3d1+      78 +   79
  140     C        3d2+      80 -   81
  141     C        1s        82 -   83
  142     C        1s        84 -   85
  143     C        1s        86 -   87
  144     C        1s        88 -   89
  145     C        1s        90 -   91
  146     C        2px       92 +   93
  147     C        2pz       96 -   97
  148     C        2px       98 +   99
  149     C        2pz      102 -  103
  150     C        2px      104 +  105
  151     C        2pz      108 -  109
  152     C        2px      110 +  111
  153     C        2pz      114 -  115
  154     C        3d0      120 -  121
  155     C        3d1+     122 +  123
  156     C        3d2+     124 -  125
  157     C        3d0      130 -  131
  158     C        3d1+     132 +  133
  159     C        3d2+     134 -  135
  160     C        2px      141
  161     C        2px      144
  162     C        2px      147
  163     C        2px      150
  164     C        3d1+     156
  165     C        3d1+     161
  166     N        2px      168
  167     N        2px      171
  168     N        2px      174
  169     N        2px      177
  170     N        3d1+     183
  171     N        3d1+     188
  172     O        1s       190 -  191
  173     O        1s       192 -  193
  174     O        1s       194 -  195
  175     O        1s       196 -  197
  176     O        1s       198 -  199
  177     O        2px      200 +  201
  178     O        2pz      204 -  205
  179     O        2px      206 +  207
  180     O        2pz      210 -  211
  181     O        2px      212 +  213
  182     O        2pz      216 -  217
  183     O        2px      218 +  219
  184     O        2pz      222 -  223
  185     O        3d0      228 -  229
  186     O        3d1+     230 +  231
  187     O        3d2+     232 -  233
  188     O        3d0      238 -  239
  189     O        3d1+     240 +  241
  190     O        3d2+     242 -  243
  191     H        1s       244 -  245
  192     H        1s       246 -  247
  193     H        1s       248 -  249
  194     H        2px      250 +  251
  195     H        2pz      254 -  255
  196     H        2px      256 +  257
  197     H        2pz      260 -  261
  198     H        1s       262 -  263
  199     H        1s       264 -  265
  200     H        1s       266 -  267
  201     H        2px      268 +  269
  202     H        2pz      272 -  273
  203     H        2px      274 +  275
  204     H        2pz      278 -  279
  205     H        2px      283
  206     H        2px      286


  Symmetry  B2 ( 3)

  207     C        2py        7
  208     C        2py       10
  209     C        2py       13
  210     C        2py       16
  211     C        3d1-      19
  212     C        3d1-      24
  213     C        2py       40 +   41
  214     C        2py       46 +   47
  215     C        2py       52 +   53
  216     C        2py       58 +   59
  217     C        3d2-      62 -   63
  218     C        3d1-      64 +   65
  219     C        3d2-      72 -   73
  220     C        3d1-      74 +   75
  221     C        2py       94 +   95
  222     C        2py      100 +  101
  223     C        2py      106 +  107
  224     C        2py      112 +  113
  225     C        3d2-     116 -  117
  226     C        3d1-     118 +  119
  227     C        3d2-     126 -  127
  228     C        3d1-     128 +  129
  229     C        2py      142
  230     C        2py      145
  231     C        2py      148
  232     C        2py      151
  233     C        3d1-     154
  234     C        3d1-     159
  235     N        2py      169
  236     N        2py      172
  237     N        2py      175
  238     N        2py      178
  239     N        3d1-     181
  240     N        3d1-     186
  241     O        2py      202 +  203
  242     O        2py      208 +  209
  243     O        2py      214 +  215
  244     O        2py      220 +  221
  245     O        3d2-     224 -  225
  246     O        3d1-     226 +  227
  247     O        3d2-     234 -  235
  248     O        3d1-     236 +  237
  249     H        2py      252 +  253
  250     H        2py      258 +  259
  251     H        2py      270 +  271
  252     H        2py      276 +  277
  253     H        2py      284
  254     H        2py      287


  Symmetry  A2 ( 4)

  255     C        3d2-      18
  256     C        3d2-      23
  257     C        2py       40 -   41
  258     C        2py       46 -   47
  259     C        2py       52 -   53
  260     C        2py       58 -   59
  261     C        3d2-      62 +   63
  262     C        3d1-      64 -   65
  263     C        3d2-      72 +   73
  264     C        3d1-      74 -   75
  265     C        2py       94 -   95
  266     C        2py      100 -  101
  267     C        2py      106 -  107
  268     C        2py      112 -  113
  269     C        3d2-     116 +  117
  270     C        3d1-     118 -  119
  271     C        3d2-     126 +  127
  272     C        3d1-     128 -  129
  273     C        3d2-     153
  274     C        3d2-     158
  275     N        3d2-     180
  276     N        3d2-     185
  277     O        2py      202 -  203
  278     O        2py      208 -  209
  279     O        2py      214 -  215
  280     O        2py      220 -  221
  281     O        3d2-     224 +  225
  282     O        3d1-     226 -  227
  283     O        3d2-     234 +  235
  284     O        3d1-     236 -  237
  285     H        2py      252 -  253
  286     H        2py      258 -  259
  287     H        2py      270 -  271
  288     H        2py      276 -  277

  Symmetries of electric field:  B1 (2)  B2 (3)  A1 (1)

  Symmetries of magnetic field:  B2 (3)  B1 (2)  A2 (4)


                     .---------------------------------------.
                     | Starting in Integral Section (HERMIT) |
                     `---------------------------------------'



 ***************************************************************************************
 ****************** Output from **INTEGRALS input processing (HERMIT) ******************
 ***************************************************************************************


 - Using defaults, no **INTEGRALS input found

 Default print level:        1

 Calculation of one-electron Hamiltonian integrals.

 Center of mass  (bohr):      0.000000000000      0.000000000000     -0.159007472161
 Operator center (bohr):      0.000000000000      0.000000000000      0.000000000000
 Gauge origin    (bohr):      0.000000000000      0.000000000000      0.000000000000
 Dipole origin   (bohr):      0.000000000000      0.000000000000      0.000000000000


     ************************************************************************
     ************************** Output from HERINT **************************
     ************************************************************************



                      Nuclear contribution to dipole moments
                      --------------------------------------

                 au               Debye          C m (/(10**-30)

      z    -18.57067984       -47.20195691      -157.44878047


  Time used in GABGEN     is       0.11 seconds
  Total CPU  time used in HERMIT:   0.41 seconds
  Total wall time used in HERMIT:   0.41 seconds


                        .----------------------------------.
                        | End of Integral Section (HERMIT) |
                        `----------------------------------'



                   .--------------------------------------------.
                   | Starting in Wave Function Section (SIRIUS) |
                   `--------------------------------------------'


 *** Output from Huckel module :

     Using EWMO model:          F
     Using EHT  model:          T
     Number of Huckel orbitals each symmetry:   24   17    6    3

 Huckel EHT eigenvalues for symmetry :  1
          -20.713120     -15.706165     -11.414851     -11.394414     -11.376680
          -11.362579      -1.882625      -1.575862      -1.257564      -0.992373
           -0.829176      -0.728014      -0.650385      -0.620897      -0.535750
           -0.437328      -0.308953      -0.237924      -0.220421      -0.213448
           -0.205747      -0.178531      -0.166780      -0.160398

 Huckel EHT eigenvalues for symmetry :  2
          -20.695876     -11.396451     -11.377841      -1.252736      -1.174824
           -0.882706      -0.610436      -0.534171      -0.486347      -0.418830
           -0.413484      -0.325352      -0.213818      -0.202811      -0.176266
           -0.165464      -0.163301

 Huckel EHT eigenvalues for symmetry :  3
           -0.824694      -0.693567      -0.481938      -0.389783      -0.281539
           -0.236519

 Huckel EHT eigenvalues for symmetry :  4
           -0.524970      -0.460539      -0.288952

 **********************************************************************
 *SIRIUS* a direct, restricted step, second order MCSCF program       *
 **********************************************************************

 
     Date and time (Linux)  : Fri Dec 20 10:54:20 2019
     Host name              : Lab2-333-NPs                            

 Title lines from ".mol" input file:
      nitrobenzene                                                           
      Generated by the Dalton Input File Plugin for Avogadro                 

 Print level on unit LUPRI =   2 is   0
 Print level on unit LUW4  =   2 is   5

@    MC-SCF optimization.

@    Multi-configurational response calculation.
@              Type: complete active space calculation (CAS).

@    This is a combination run starting with
@              a restricted, closed shell Hartree-Fock calculation
@              an MP2 calculation

 Fock matrices are calculated directly without use of integrals on disk.

 Initial molecular orbitals are obtained according to
 ".MOSTART EHT   " input option

     Wave function specification
     ============================
@    Wave function type        --- MC-SCF ---
@    Number of closed shell electrons          54
@    Number of electrons in active shells      10
@    Total charge of the molecule               0

@    Spin multiplicity and 2 M_S                1         0
@    Total number of symmetries                 4 (point group: C2v)
@    Reference state symmetry                   1 (irrep name : A1 )

     Orbital specifications
     ======================
@    Abelian symmetry species          All |    1    2    3    4
@                                          |  A1   B1   B2   A2 
                                       --- |  ---  ---  ---  ---
@    Inactive orbitals                  27 |   15   10    2    0
@    Active orbitals                     7 |    1    1    2    3
@    Secondary orbitals                254 |   99   80   44   31
@    Total number of orbitals          288 |  115   91   48   34
@    Number of basis functions         288 |  115   91   48   34

      ** Automatic occupation of RHF orbitals **

      -- Initial occupation of symmetries is determined from extended Huckel guess.           
      -- Initial occupation of symmetries is :
@    Occupied SCF orbitals              32 |   16   11    3    2

     Optimization information
     ========================
@    Number of determinants                 115
@    Number of orbital rotations           2762
     ------------------------------------------
@    Total number of variables             2877

     Maximum number of macro iterations      40
     Maximum number of micro iterations     960
     Threshold for MCSCF gradient      1.00D-05
     Number of initial trial vectors          2
     Number of initial CI iterations          3
     Number of simultaneous trial vectors     2

@    This calculation converges to state no.   2 for the specified symmetry and spin species.

     Maximum number of NEO/NR iterations  24

    INFORMATION: Switched to "new" integral transformation (from 1988 ;-) )
    because more than 255 basis functions.


 ***********************************************
 ***** DIIS acceleration of SCF iterations *****
 ***********************************************

 C1-DIIS algorithm; max error vectors =    8

 Automatic occupation of symmetries with  64 electrons.

 Iter     Total energy    Error norm  Delta(E)    SCF occupation
 -----------------------------------------------------------------------------
   1  Screening settings (-IFTHRS, JTDIIS, DIFDEN, times)   -8    1    T  2.80D+01  2.80D+01
@  1  -431.112243921       6.98D+00  -4.31D+02    16  11   3   2
      Virial theorem: -V/T =      1.988469
@    MULPOP   C       0.45; C   _1  0.28; C   _2  0.28; C   _1  0.26; C   _2  0.26; C       0.44; N       1.18; O   _1 -1.12; O   _2 -1.12; H   _1 -0.19; 
@             H   _2 -0.19; H   _1 -0.18; H   _2 -0.18; H      -0.18; 
   1  Level shift: doubly occupied orbital energies shifted by -2.00D-01
 -----------------------------------------------------------------------------
   2  Screening settings (-IFTHRS, JTDIIS, DIFDEN, times)   -8    2    T  2.82D+01  2.82D+01
@  2  -428.136537273       8.83D+00   2.98D+00    16  10   4   2
      Virial theorem: -V/T =      1.996547
@    MULPOP   C       0.46; C   _1 -0.49; C   _2 -0.49; C   _1 -0.11; C   _2 -0.11; C      -0.21; N      -0.04; O   _1  1.46; O   _2  1.46; H   _1 -0.39; 
@             H   _2 -0.39; H   _1 -0.39; H   _2 -0.39; H      -0.38; 
   2  Level shift: doubly occupied orbital energies shifted by -2.00D-01
 -----------------------------------------------------------------------------
   3  Screening settings (-IFTHRS, JTDIIS, DIFDEN, times)   -8    3    T  2.81D+01  2.81D+01
@  3  -432.918374072       3.15D+00  -4.78D+00    16  11   3   2
      Virial theorem: -V/T =      1.984691
@    MULPOP   C       1.74; C   _1  0.32; C   _2  0.32; C   _1  0.66; C   _2  0.66; C       0.75; N       0.35; O   _1 -1.17; O   _2 -1.17; H   _1 -0.51; 
@             H   _2 -0.51; H   _1 -0.47; H   _2 -0.47; H      -0.48; 
   3  Level shift: doubly occupied orbital energies shifted by -1.00D-01
 -----------------------------------------------------------------------------
   4  Screening settings (-IFTHRS, JTDIIS, DIFDEN, times)   -8    4    T  2.81D+01  2.81D+01
@  4  -433.456328516       1.19D+00  -5.38D-01    16  11   3   2
      Virial theorem: -V/T =      1.996052
@    MULPOP   C       1.49; C   _1  0.32; C   _2  0.32; C   _1  0.68; C   _2  0.68; C       0.48; N       0.75; O   _1 -1.18; O   _2 -1.18; H   _1 -0.50; 
@             H   _2 -0.50; H   _1 -0.45; H   _2 -0.45; H      -0.43; 
   4  Level shift: doubly occupied orbital energies shifted by -5.00D-02
 -----------------------------------------------------------------------------
   5  Screening settings (-IFTHRS, JTDIIS, DIFDEN, times)   -8    5    T  2.80D+01  2.80D+01
@  5  -433.557249001       3.29D-01  -1.01D-01    16  11   3   2
      Virial theorem: -V/T =      1.996986
@    MULPOP   C       1.53; C   _1  0.19; C   _2  0.19; C   _1  0.76; C   _2  0.76; C       0.37; N       0.46; O   _1 -0.98; O   _2 -0.98; H   _1 -0.50; 
@             H   _2 -0.50; H   _1 -0.44; H   _2 -0.44; H      -0.42; 
   5  Level shift: doubly occupied orbital energies shifted by -2.50D-02
 -----------------------------------------------------------------------------
   6  Screening settings (-IFTHRS, JTDIIS, DIFDEN, times)   -8    6    T  2.80D+01  2.80D+01
@  6  -433.574669143       1.50D-01  -1.74D-02    16  11   3   2
      Virial theorem: -V/T =      1.996897
@    MULPOP   C       1.62; C   _1  0.12; C   _2  0.12; C   _1  0.74; C   _2  0.74; C       0.31; N       0.45; O   _1 -0.91; O   _2 -0.91; H   _1 -0.51; 
@             H   _2 -0.51; H   _1 -0.42; H   _2 -0.42; H      -0.40; 
   6  Level shift: doubly occupied orbital energies shifted by -1.25D-02
 -----------------------------------------------------------------------------
   7  Screening settings (-IFTHRS, JTDIIS, DIFDEN, times)  -10    7    F  2.85D+01  2.85D+01
@  7  -433.577512909       9.64D-02  -2.84D-03    16  11   3   2
      Virial theorem: -V/T =      1.997203
@    MULPOP   C       1.69; C   _1  0.10; C   _2  0.10; C   _1  0.73; C   _2  0.73; C       0.31; N       0.40; O   _1 -0.87; O   _2 -0.87; H   _1 -0.54; 
@             H   _2 -0.54; H   _1 -0.42; H   _2 -0.42; H      -0.41; 
   7  Level shift: doubly occupied orbital energies shifted by -1.25D-02
 -----------------------------------------------------------------------------
   8  Screening settings (-IFTHRS, JTDIIS, DIFDEN, times)  -10    8    T  2.82D+01  2.82D+01
@  8  -433.578647266       3.87D-02  -1.13D-03    16  11   3   2
      Virial theorem: -V/T =      1.997019
@    MULPOP   C       1.72; C   _1  0.10; C   _2  0.10; C   _1  0.73; C   _2  0.73; C       0.33; N       0.39; O   _1 -0.87; O   _2 -0.87; H   _1 -0.56; 
@             H   _2 -0.56; H   _1 -0.42; H   _2 -0.42; H      -0.41; 
 -----------------------------------------------------------------------------
   9  Screening settings (-IFTHRS, JTDIIS, DIFDEN, times)  -10    9    T  2.80D+01  2.80D+01
@  9  -433.579026992       1.65D-02  -3.80D-04    16  11   3   2
      Virial theorem: -V/T =      1.997010
@    MULPOP   C       1.72; C   _1  0.11; C   _2  0.11; C   _1  0.73; C   _2  0.73; C       0.34; N       0.38; O   _1 -0.86; O   _2 -0.86; H   _1 -0.57; 
@             H   _2 -0.57; H   _1 -0.41; H   _2 -0.41; H      -0.41; 
 -----------------------------------------------------------------------------
  10  Screening settings (-IFTHRS, JTDIIS, DIFDEN, times)  -13   10    F  2.85D+01  2.85D+01
@ 10  -433.579128947       1.04D-02  -1.02D-04    16  11   3   2
      Virial theorem: -V/T =      1.997020
@    MULPOP   C       1.73; C   _1  0.11; C   _2  0.11; C   _1  0.72; C   _2  0.72; C       0.35; N       0.38; O   _1 -0.86; O   _2 -0.86; H   _1 -0.58; 
@             H   _2 -0.58; H   _1 -0.41; H   _2 -0.41; H      -0.41; 
 -----------------------------------------------------------------------------
  11  Screening settings (-IFTHRS, JTDIIS, DIFDEN, times)  -13   11    T  2.83D+01  2.83D+01
@ 11  -433.579178505       5.69D-03  -4.96D-05    16  11   3   2
      Virial theorem: -V/T =      1.997010
@    MULPOP   C       1.73; C   _1  0.11; C   _2  0.11; C   _1  0.72; C   _2  0.72; C       0.35; N       0.39; O   _1 -0.87; O   _2 -0.87; H   _1 -0.58; 
@             H   _2 -0.58; H   _1 -0.41; H   _2 -0.41; H      -0.41; 
 -----------------------------------------------------------------------------
  12  Screening settings (-IFTHRS, JTDIIS, DIFDEN, times)  -13   12    T  2.84D+01  2.84D+01
@ 12  -433.579203625       2.99D-03  -2.51D-05    16  11   3   2
      Virial theorem: -V/T =      1.997011
@    MULPOP   C       1.73; C   _1  0.11; C   _2  0.11; C   _1  0.72; C   _2  0.72; C       0.35; N       0.39; O   _1 -0.87; O   _2 -0.87; H   _1 -0.58; 
@             H   _2 -0.58; H   _1 -0.41; H   _2 -0.41; H      -0.41; 
 -----------------------------------------------------------------------------
  13  Screening settings (-IFTHRS, JTDIIS, DIFDEN, times)  -13   13    T  2.84D+01  2.84D+01
@ 13  -433.579209014       1.49D-03  -5.39D-06    16  11   3   2
      Virial theorem: -V/T =      1.997014
@    MULPOP   C       1.74; C   _1  0.11; C   _2  0.11; C   _1  0.72; C   _2  0.72; C       0.35; N       0.40; O   _1 -0.87; O   _2 -0.87; H   _1 -0.58; 
@             H   _2 -0.58; H   _1 -0.41; H   _2 -0.41; H      -0.41; 
 -----------------------------------------------------------------------------
  14  Screening settings (-IFTHRS, JTDIIS, DIFDEN, times)  -13   14    T  2.82D+01  2.82D+01
@ 14  -433.579210237       8.60D-04  -1.22D-06    16  11   3   2
      Virial theorem: -V/T =      1.997012
@    MULPOP   C       1.74; C   _1  0.11; C   _2  0.11; C   _1  0.72; C   _2  0.72; C       0.35; N       0.40; O   _1 -0.87; O   _2 -0.87; H   _1 -0.58; 
@             H   _2 -0.58; H   _1 -0.41; H   _2 -0.41; H      -0.41; 
 -----------------------------------------------------------------------------
  15  Screening settings (-IFTHRS, JTDIIS, DIFDEN, times)  -13   15    T  2.81D+01  2.82D+01
@ 15  -433.579210662       5.65D-04  -4.25D-07    16  11   3   2
      Virial theorem: -V/T =      1.997011
@    MULPOP   C       1.73; C   _1  0.11; C   _2  0.11; C   _1  0.72; C   _2  0.72; C       0.35; N       0.40; O   _1 -0.87; O   _2 -0.87; H   _1 -0.58; 
@             H   _2 -0.58; H   _1 -0.41; H   _2 -0.41; H      -0.41; 
 -----------------------------------------------------------------------------
  16  Screening settings (-IFTHRS, JTDIIS, DIFDEN, times)  -13   16    T  2.83D+01  2.83D+01
@ 16  -433.579210861       2.23D-04  -1.99D-07    16  11   3   2
      Virial theorem: -V/T =      1.997010
@    MULPOP   C       1.73; C   _1  0.11; C   _2  0.11; C   _1  0.72; C   _2  0.72; C       0.35; N       0.40; O   _1 -0.87; O   _2 -0.87; H   _1 -0.58; 
@             H   _2 -0.58; H   _1 -0.41; H   _2 -0.41; H      -0.41; 
 -----------------------------------------------------------------------------
  17  Screening settings (-IFTHRS, JTDIIS, DIFDEN, times)  -13   17    T  2.82D+01  2.82D+01
@ 17  -433.579210877       1.76D-04  -1.53D-08    16  11   3   2
      Virial theorem: -V/T =      1.997009
@    MULPOP   C       1.73; C   _1  0.11; C   _2  0.11; C   _1  0.72; C   _2  0.72; C       0.35; N       0.40; O   _1 -0.87; O   _2 -0.87; H   _1 -0.58; 
@             H   _2 -0.58; H   _1 -0.41; H   _2 -0.41; H      -0.41; 
 -----------------------------------------------------------------------------
  18  Screening settings (-IFTHRS, JTDIIS, DIFDEN, times)  -13   18    T  2.82D+01  2.82D+01
@ 18  -433.579210887       6.31D-05  -1.09D-08    16  11   3   2
      Virial theorem: -V/T =      1.997009
@    MULPOP   C       1.73; C   _1  0.11; C   _2  0.11; C   _1  0.72; C   _2  0.72; C       0.35; N       0.40; O   _1 -0.87; O   _2 -0.87; H   _1 -0.58; 
@             H   _2 -0.58; H   _1 -0.41; H   _2 -0.41; H      -0.41; 
 -----------------------------------------------------------------------------
  19  Screening settings (-IFTHRS, JTDIIS, DIFDEN, times)  -13   19    T  2.81D+01  2.81D+01
@ 19  -433.579210889       2.52D-05  -1.60D-09    16  11   3   2
      Virial theorem: -V/T =      1.997009
@    MULPOP   C       1.73; C   _1  0.11; C   _2  0.11; C   _1  0.72; C   _2  0.72; C       0.35; N       0.40; O   _1 -0.87; O   _2 -0.87; H   _1 -0.58; 
@             H   _2 -0.58; H   _1 -0.41; H   _2 -0.41; H      -0.41; 
 -----------------------------------------------------------------------------
  20  Screening settings (-IFTHRS, JTDIIS, DIFDEN, times)  -13   20    T  2.81D+01  2.81D+01
@ 20  -433.579210889       1.17D-05  -1.15D-10    16  11   3   2
      Virial theorem: -V/T =      1.997009
@    MULPOP   C       1.73; C   _1  0.11; C   _2  0.11; C   _1  0.72; C   _2  0.72; C       0.35; N       0.40; O   _1 -0.87; O   _2 -0.87; H   _1 -0.58; 
@             H   _2 -0.58; H   _1 -0.41; H   _2 -0.41; H      -0.41; 
 -----------------------------------------------------------------------------
  21  Screening settings (-IFTHRS, JTDIIS, DIFDEN, times)  -13   21    T  2.80D+01  2.81D+01
@ 21  -433.579210889       3.90D-06  -2.05D-11    16  11   3   2
      Virial theorem: -V/T =      1.997009
@    MULPOP   C       1.73; C   _1  0.11; C   _2  0.11; C   _1  0.72; C   _2  0.72; C       0.35; N       0.40; O   _1 -0.87; O   _2 -0.87; H   _1 -0.58; 
@             H   _2 -0.58; H   _1 -0.41; H   _2 -0.41; H      -0.41; 
 -----------------------------------------------------------------------------
  22  Screening settings (-IFTHRS, JTDIIS, DIFDEN, times)  -13   22    T  2.80D+01  2.80D+01
@ 22  -433.579210889       1.83D-06   5.57D-12    16  11   3   2
      Virial theorem: -V/T =      1.997009
@    MULPOP   C       1.73; C   _1  0.11; C   _2  0.11; C   _1  0.72; C   _2  0.72; C       0.35; N       0.40; O   _1 -0.87; O   _2 -0.87; H   _1 -0.58; 
@             H   _2 -0.58; H   _1 -0.41; H   _2 -0.41; H      -0.41; 
 -----------------------------------------------------------------------------
  23  Screening settings (-IFTHRS, JTDIIS, DIFDEN, times)  -13   23    T  2.80D+01  2.80D+01
@ 23  -433.579210889       1.20D-06  -2.50D-12    16  11   3   2
      Virial theorem: -V/T =      1.997009
@    MULPOP   C       1.73; C   _1  0.11; C   _2  0.11; C   _1  0.72; C   _2  0.72; C       0.35; N       0.40; O   _1 -0.87; O   _2 -0.87; H   _1 -0.58; 
@             H   _2 -0.58; H   _1 -0.41; H   _2 -0.41; H      -0.41; 
 -----------------------------------------------------------------------------
  24  Screening settings (-IFTHRS, JTDIIS, DIFDEN, times)  -13   24    T  2.79D+01  2.79D+01
@ 24  -433.579210889       8.14D-07  -7.05D-12    16  11   3   2

@ *** DIIS converged in  24 iterations !
@     Converged SCF energy, gradient:   -433.579210889166    8.14D-07
    - total time used in SIRFCK :              0.00 seconds

 --- Writing SIRIFC interface file

 CPU and wall time for SCF :     676.641     676.938


 ----- Output from SIRIUS MP2 module -----

 Reference: H.J.Aa.Jensen, P.Jorgensen, H.Agren, and J.Olsen,
            J. Chem. Phys. 88, 3834 (1988); 89, 5354 (1988)

 Checking that the closed shell orbitals are canonical Hartree-Fock orbitals

    Number of electrons  :   64
    Closed shell orbitals:   16   11    3    2

 Generating Fock matrix

 Hartree-Fock electronic energy:        -846.167270952350
 Hartree-Fock total      energy:        -433.579210889171

 Hartree-Fock orbital energies, symmetry 1 ( A1 ),   16 occupied SCF orbitals

       -20.58035274   -15.85491768   -11.37879962   -11.32659268   -11.32098332
       -11.30414327    -1.78330232    -1.25592424    -1.16294502    -1.02780566
        -0.87397490    -0.79545291    -0.74553379    -0.68523992    -0.65328402
        -0.58638902     0.01582420     0.03819496     0.05896120     0.09626667
         0.12311094     0.12491219     0.13944642     0.15014660     0.16723146
         0.17893046     0.20070441     0.23247278     0.26043790     0.27608556
         0.30250846     0.32437661     0.32546148     0.34806478     0.35787381
         0.38124657     0.39596648     0.40059240     0.42826535     0.46619039
         0.51776293     0.53764896     0.54773971     0.59759754     0.59864726
         0.63738401     0.64418544     0.66615852     0.69930720     0.72738787
         0.76454065     0.82139148     0.86712309     0.89277795     0.92224478
         0.94985086     0.97566505     1.04528349     1.08368815     1.14542571
         1.21722334     1.30758956     1.33303092     1.37983500     1.46983157
         1.49888251     1.51240694     1.55099095     1.56630418     1.58878837
         1.68633142     1.70154548     1.71846953     1.75519353     1.82695368
         1.91594917     1.94511584     1.98849005     1.99769510     2.17167753
         2.19431297     2.25047301     2.34391877     2.37889218     2.40468772
         2.49373620     2.54494454     2.63305334     2.70150982     2.79243798
         2.86970498     2.92238044     3.01372919     3.10818676     3.23275197
         3.30961596     3.54208199     3.84184461     3.99308825     4.16575154
        19.77031739    20.28109163    20.42030359    20.58481164    23.31823630
        23.38357635    23.44034962    23.75844287    23.85766093    24.07466690
        27.18534415    31.51189502    35.85286836    39.90683578    40.21140098

 Hartree-Fock orbital energies, symmetry 2 ( B1 ),   11 occupied SCF orbitals

       -20.58032652   -11.32662800   -11.30419744    -1.21570193    -1.09052126
        -0.90284840    -0.71132668    -0.65785569    -0.63527116    -0.56398485
        -0.12211919     0.02938560     0.06312441     0.12215580     0.12623129
         0.14446461     0.17724952     0.17935278     0.21309604     0.26007657
         0.27855432     0.29586169     0.31066024     0.32951524     0.35092352
         0.37751732     0.39037518     0.41010584     0.44491788     0.54046555
         0.55686510     0.57322616     0.61029948     0.63074375     0.65969959
         0.67461706     0.73817858     0.75315977     0.80189965     0.82722433
         0.83589043     0.86628813     1.00233778     1.13575175     1.23331570
         1.29675533     1.32225505     1.36581170     1.46004712     1.47885024
         1.54392374     1.56062627     1.59501548     1.62307691     1.69345678
         1.73263569     1.74054249     1.79814553     1.83042008     1.90094074
         2.01045593     2.11624079     2.14396399     2.26970216     2.28944689
         2.35013336     2.40560183     2.47368699     2.52983555     2.70377219
         2.86937481     2.90304508     3.12030943     3.32155376     3.36196976
         3.40534057     3.88491609     4.23272491     4.53580798    20.24300061
        20.42632432    22.83023942    23.28532953    23.33724054    23.90608076
        24.08054126    24.26744970    31.20686355    35.78991431    39.69417907
        39.96486035

 Hartree-Fock orbital energies, symmetry 3 ( B2 ),    3 occupied SCF orbitals

        -0.76538401    -0.57678259    -0.42331158    -0.02042976     0.08912456
         0.09939797     0.12545873     0.17002623     0.17691778     0.23804397
         0.29358649     0.32105414     0.36398295     0.44417046     0.51783078
         0.56463759     0.63630651     0.68707128     0.75508359     0.84014554
         0.87349499     0.89146295     0.90829174     1.04148097     1.08308208
         1.13258304     1.22321462     1.43824485     1.47016874     1.57471899
         1.63918862     1.66854876     1.81686581     1.89238033     2.01735873
         2.05189205     2.12983041     2.25917102     2.52305176     2.64529548
         3.44956362     3.89779009    22.51067332    22.66057455    22.79041743
        22.98737656    30.55742106    39.52377131

 Hartree-Fock orbital energies, symmetry 4 ( A2 ),    2 occupied SCF orbitals

        -0.40165996    -0.38434274     0.06007318     0.11873773     0.17485007
         0.30452165     0.39655417     0.47710527     0.51459136     0.62342677
         0.71249525     0.86021751     0.87430016     0.90645782     1.01493879
         1.04866780     1.19213100     1.30828867     1.41150857     1.56414619
         1.64209498     1.65809018     1.84130745     1.93374973     2.07872656
         2.14484215     2.31816921     2.46711445     2.57197708     3.84406561
         3.90824311    22.65612563    22.82271051    39.48474301

    E(LUMO) :    -0.02042976   (in symmetry 3)
  - E(HOMO) :    -0.12211919   (in symmetry 2)
  --------------------------
    gap     :     0.10168943

---> (Re)generating AOTWOINT


     ************************************************************************
     ************************** Output from HERINT **************************
     ************************************************************************


 Threshold for neglecting two-electron integrals:  1.00D-12
 HERMIT - Number of two-electron integrals written:   199412644 ( 23.0% )
 HERMIT - Megabytes written:                           3044.069

  Time used in TWOINT     is      39.28 seconds

 2-el. integral transformation level 5: Total CPU and WALL times (sec)     414.641     416.857

 MP2 move   1.074523 electrons to unoccupied HF orbitals


@   Hartree-Fock total energy   :          -433.5792108892
@   + MP2 contribution          :            -1.7659787450
@   = MP2 second order energy   :          -435.3451896341

 Natural orbital occupation numbers, symmetry 1 (irrep A1 )
 Sum =    31.99352799; RHF =    32.00000000; Difference =    -0.00647201

         1.99928923     1.99907106     1.99876190     1.99875718     1.99875173
         1.99874803     1.98767885     1.98420392     1.97956748     1.97243034
         1.96830131     1.96709485     1.96247232     1.95624694     1.95518798
         1.94480358     0.04190818     0.02887859     0.02526453     0.02329290
         0.02018373     0.01851774     0.01700659     0.01593755     0.01356618
         0.01241769     0.01184575     0.00973147     0.00961757     0.00814602
         0.00757590     0.00726864     0.00609997     0.00461506     0.00319484
         0.00306200     0.00285582     0.00275302     0.00245610     0.00228504
         0.00189830     0.00168591     0.00161478     0.00145897     0.00134802
         0.00121312     0.00113775     0.00103686     0.00089210     0.00070568
         0.00064531     0.00060251     0.00056995     0.00049079     0.00045064
         0.00043311     0.00041576     0.00041010     0.00037863     0.00037195
         0.00036125     0.00034201     0.00031992     0.00031328     0.00030286
         0.00026697     0.00025684     0.00023645     0.00022407     0.00020143
         0.00019379     0.00018731     0.00018160     0.00017390     0.00017193
         0.00016925     0.00016138     0.00015826     0.00015473     0.00014096
         0.00012908     0.00012652     0.00012358     0.00011755     0.00011307
         0.00010918     0.00009213     0.00008059     0.00007064     0.00006914
         0.00005410     0.00005158     0.00004625     0.00003779     0.00003260
         0.00002686     0.00002176     0.00001970     0.00001680     0.00001188
         0.00000947     0.00000885     0.00000836     0.00000708     0.00000533
         0.00000421     0.00000257     0.00000190     0.00000145     0.00000106
         0.00000057     0.00000038     0.00000018     0.00000006    -0.00000023

 Natural orbital occupation numbers, symmetry 2 (irrep B1 )
 Sum =    21.96568895; RHF =    22.00000000; Difference =    -0.03431105

         1.99928979     1.99875762     1.99875166     1.98087897     1.98032670
         1.97407646     1.96965392     1.96056898     1.95523424     1.95452619
         1.93758260     0.05956942     0.04126074     0.02505745     0.02383157
         0.01639755     0.01581238     0.01496782     0.01306803     0.01040333
         0.00884232     0.00790897     0.00592187     0.00525426     0.00469191
         0.00327217     0.00304602     0.00254139     0.00221118     0.00208135
         0.00182216     0.00159510     0.00153746     0.00132138     0.00127297
         0.00105461     0.00096860     0.00069065     0.00063359     0.00062698
         0.00055938     0.00050547     0.00043936     0.00042327     0.00040530
         0.00036812     0.00033423     0.00032653     0.00028375     0.00026080
         0.00025697     0.00022403     0.00020833     0.00019129     0.00018863
         0.00018317     0.00017929     0.00017108     0.00016791     0.00016418
         0.00014816     0.00014470     0.00013749     0.00012894     0.00012350
         0.00011998     0.00011097     0.00010180     0.00008471     0.00007209
         0.00005911     0.00005157     0.00004014     0.00003851     0.00003069
         0.00002677     0.00002245     0.00001569     0.00001347     0.00001129
         0.00000961     0.00000607     0.00000596     0.00000455     0.00000220
         0.00000160     0.00000089     0.00000038     0.00000025    -0.00000021
        -0.02897583

 Natural orbital occupation numbers, symmetry 3 (irrep B2 )
 Sum =     6.06942424; RHF =     6.00000000; Difference =     0.06942424

         1.94875612     1.94213319     1.90615221     0.10166237     0.06471267
         0.02911050     0.01065654     0.01007335     0.00872080     0.00836309
         0.00720647     0.00588615     0.00456380     0.00417005     0.00331105
         0.00290963     0.00145623     0.00133473     0.00104250     0.00086378
         0.00082686     0.00064300     0.00061284     0.00050427     0.00046134
         0.00041225     0.00033285     0.00029771     0.00027032     0.00023786
         0.00022099     0.00019598     0.00018868     0.00017914     0.00015325
         0.00014479     0.00012169     0.00010760     0.00010458     0.00007979
         0.00007874     0.00007350     0.00003846     0.00001913     0.00001312
         0.00000975     0.00000660     0.00000388

 Natural orbital occupation numbers, symmetry 4 (irrep A2 )
 Sum =     3.97135882; RHF =     4.00000000; Difference =    -0.02864118

         1.92626891     1.90697854     0.06398191     0.02155851     0.01014505
         0.00944279     0.00723964     0.00567094     0.00388716     0.00358647
         0.00331567     0.00173179     0.00140290     0.00090672     0.00075909
         0.00071807     0.00063315     0.00055154     0.00042278     0.00037862
         0.00035959     0.00026995     0.00020478     0.00019621     0.00016599
         0.00013118     0.00011712     0.00010174     0.00007697     0.00005799
         0.00004771     0.00002835     0.00001845     0.00000252

 Time used for MP2 natural orbitals :     446.609 CPU seconds,     448.824 wall seconds.

 CPU and wall time for MP2 :     446.609     448.824


        SIRIUS MCSCF optimization (SIROPT)
 ================================================


 Fock matrix screening setting for SIRCNO: IFTHRS =    9


 ----- Output from SIRIUS CI module (CICTL) -----




 2-el. integral transformation level 0: Total CPU and WALL times (sec)      98.141      98.199


 --- SIRCI.CIST1: plus combination of all degenerate
                 configurations is used as start vectors.


 (CIST1) 18 lowest diagonal elements:

 Element no. Config.no.    Active energy      Total energy

         1 :         67    -18.1721121789   -433.5370862622
         2 :         68    -17.9048669838   -433.2698410670
         3 :         74    -17.9048669838   -433.2698410670
         4 :         69    -17.8798202485   -433.2447943317
         5 :         81    -17.8798202485   -433.2447943317
         6 :         52    -17.7548795564   -433.1198536396
         7 :         55    -17.7548795564   -433.1198536396
         8 :         78    -17.7312449651   -433.0962190483
         9 :         96    -17.7312449651   -433.0962190483
        10 :         54    -17.6749882367   -433.0399623200
        11 :         63    -17.6749882367   -433.0399623200
        12 :         71    -17.6522199362   -433.0171940194
        13 :         95    -17.6522199362   -433.0171940194
        14 :         76    -17.6226179925   -432.9875920757
        15 :         82    -17.6226179925   -432.9875920757
        16 :         58    -17.6111765040   -432.9761505872
        17 :         64    -17.6111765040   -432.9761505872
        18 :         56    -17.6062276172   -432.9712017004


 Convergence threshold for CI optimization :     0.00000500



 *** Reached maximum number of CI iterations:    3
              1 CI roots are not converged.


@ Final CI energies and residuals in symmetry 1 (irrep A1 )
@    1     -433.575850891294920       3.30D-02
@    2     -433.277762645001644       6.57D-03
@    3     -433.196707718981372       5.31D-02
@    4     -433.189595289447880       2.20D-02
@    5     -433.118295075065021       6.60D-02
@    6     -433.044713400182047       8.33D-02

   --- OUTPUT FROM SIRCNO     Keyword = FD+NO 


 Occupations of CAS natural orbitals:

 Symmetry  1 ( irrep A1  in C2v )

   1.999920252

 Symmetry  2 ( irrep B1  in C2v )

   1.999958088

 Symmetry  3 ( irrep B2  in C2v )

   1.259678293   0.806034968

 Symmetry  4 ( irrep A2  in C2v )

   1.944103469   1.895392178   0.094912752


 --- MACRO ITERATION  1 ---
 --------------------------

 2-el. integral transformation level 3: Total CPU and WALL times (sec)     100.562     100.600

 Fock matrix screening setting for this macro iteration: 10^( -9)

 Total MCSCF energy       :          -433.277762644287350  (MACRO    1)

 - Nuclear repulsion      :           412.588060063179910
 - Inactive energy        :          -827.953034147120206
 - Active energy          :           -17.912788560347060

 Norm of total gradient   :             1.070787711823
 -    of CI gradient      :             0.013135647234
 -    of orbital gradient :             1.070707139494
      Virial theorem: -V/T =      1.993801
@    MULPOP   C       2.33; C   _1  0.24; C   _2  0.24; C   _1  0.67; C   _2  0.67; C       0.48; N      -0.04; O   _1 -0.74; O   _2 -0.74; H   _1 -0.92; 
@             H   _2 -0.92; H   _1 -0.42; H   _2 -0.42; H      -0.44; 

 Residual norm when dim(red L) =  11
 NEO root     CSF        orbital          total
    1     0.06363424     0.07572871     0.09891489 converged

 (NEONEX) NEO auxiliary root no.  1 is converged.

 Residual norm when dim(red L) =  12
 NEO root     CSF        orbital          total
    2     0.13541123     0.06266320     0.14920750 converged

 (NEONEX) NEO vector is converged.

   --- OUTPUT FROM SIRCNO     Keyword = FD+NO 


 Occupations of CAS natural orbitals:

 Symmetry  1 ( irrep A1  in C2v )

   1.999944994

 Symmetry  2 ( irrep B1  in C2v )

   1.999956708

 Symmetry  3 ( irrep B2  in C2v )

   1.467368202   0.610947785

 Symmetry  4 ( irrep A2  in C2v )

   1.938771111   1.885685847   0.097325353


 --- MACRO ITERATION  2 ---
 --------------------------

 2-el. integral transformation level 3: Total CPU and WALL times (sec)     100.688     100.723

 Fock matrix screening setting for this macro iteration: 10^( -9)

 Total MCSCF energy       :          -433.416430422028611  (MACRO    2)

 - Nuclear repulsion      :           412.588060063179910
 - Inactive energy        :          -827.498064211009591
 - Active energy          :           -18.506426274198933

 Norm of total gradient   :             0.274877508261
 -    of CI gradient      :             0.135980375092
 -    of orbital gradient :             0.238886965190
      Virial theorem: -V/T =      1.997582
@    MULPOP   C       2.47; C   _1  0.46; C   _2  0.46; C   _1  0.70; C   _2  0.70; C       0.38; N       0.10; O   _1 -0.76; O   _2 -0.76; H   _1 -1.35; 
@             H   _2 -1.35; H   _1 -0.35; H   _2 -0.35; H      -0.37; 

 Residual norm when dim(red L) =  14
 NEO root     CSF        orbital          total
    1     0.05517549     0.03899477     0.06756425 converged

 (NEONEX) NEO auxiliary root no.  1 is converged.

 Residual norm when dim(red L) =  18
 NEO root     CSF        orbital          total
    2     0.04074885     0.02007577     0.04542582 converged

 (NEONEX) NEO vector is converged.

   --- OUTPUT FROM SIRCNO     Keyword = FD+NO 


 Occupations of CAS natural orbitals:

 Symmetry  1 ( irrep A1  in C2v )

   1.999755976

 Symmetry  2 ( irrep B1  in C2v )

   1.999626706

 Symmetry  3 ( irrep B2  in C2v )

   1.628233693   0.401527953

 Symmetry  4 ( irrep A2  in C2v )

   1.871474262   1.961522578   0.137858833


 --- MACRO ITERATION  3 ---
 --------------------------

 2-el. integral transformation level 3: Total CPU and WALL times (sec)     100.422     100.436

 Fock matrix screening setting for this macro iteration: 10^( -9)

 Total MCSCF energy       :          -433.420918499009304  (MACRO    3)

 - Nuclear repulsion      :           412.588060063179910
 - Inactive energy        :          -827.522322665524371
 - Active energy          :           -18.486655896664825

 Norm of total gradient   :             0.249550863339
 -    of CI gradient      :             0.097544267181
 -    of orbital gradient :             0.229697081682
      Virial theorem: -V/T =      1.997296
@    MULPOP   C       2.55; C   _1  0.63; C   _2  0.63; C   _1  0.70; C   _2  0.70; C       0.38; N       0.01; O   _1 -0.70; O   _2 -0.70; H   _1 -1.54; 
@             H   _2 -1.54; H   _1 -0.39; H   _2 -0.39; H      -0.37; 

 (SIRSTP) Energy difference;
 actual, predicted and ratio:  -0.004488076980692  -0.031195549680056    0.143869

 (SIRSTP) step is too large -- backstep

   --- OUTPUT FROM SIRCNO     Keyword = FD+NO 


 Occupations of CAS natural orbitals:

 Symmetry  1 ( irrep A1  in C2v )

   1.999791440

 Symmetry  2 ( irrep B1  in C2v )

   1.999774704

 Symmetry  3 ( irrep B2  in C2v )

   1.621665062   0.435681781

 Symmetry  4 ( irrep A2  in C2v )

   1.935186374   1.902184876   0.105715763


 Optimization control: Step was too large, we backstep


 --- MACRO ITERATION  3 BACKSTEP NO.  1 ---

 2-el. integral transformation level 3: Total CPU and WALL times (sec)     100.859     100.915

 Fock matrix screening setting for this macro iteration: 10^( -9)

 Total MCSCF energy       :          -433.431996651854263  (MACRO    3)

 - Nuclear repulsion      :           412.588060063179910
 - Inactive energy        :          -827.681889628753879
 - Active energy          :           -18.338167086280304

 Norm of total gradient   :             0.121554800061
 -    of CI gradient      :             0.032478986210
 -    of orbital gradient :             0.117135327176
      Virial theorem: -V/T =      1.997138
@    MULPOP   C       2.40; C   _1  0.51; C   _2  0.51; C   _1  0.74; C   _2  0.74; C       0.40; N       0.04; O   _1 -0.73; O   _2 -0.73; H   _1 -1.37; 
@             H   _2 -1.37; H   _1 -0.37; H   _2 -0.37; H      -0.37; 

 Residual norm when dim(red L) =  13
 NEO root     CSF        orbital          total
    1     0.03433722     0.04131776     0.05372338 converged

 (NEONEX) NEO auxiliary root no.  1 is converged.

 Residual norm when dim(red L) =  14
 NEO root     CSF        orbital          total
    2     0.01830240     0.00535518     0.01906976 converged

 (NEONEX) NEO vector is converged.

   --- OUTPUT FROM SIRCNO     Keyword = FD+NO 


 Occupations of CAS natural orbitals:

 Symmetry  1 ( irrep A1  in C2v )

   1.999626990

 Symmetry  2 ( irrep B1  in C2v )

   1.999813913

 Symmetry  3 ( irrep B2  in C2v )

   1.603127342   0.454681840

 Symmetry  4 ( irrep A2  in C2v )

   1.937833862   1.900520571   0.104395483


 --- MACRO ITERATION  4 ---
 --------------------------

 2-el. integral transformation level 3: Total CPU and WALL times (sec)     101.094     101.156

 Fock matrix screening setting for this macro iteration: 10^( -9)

 Total MCSCF energy       :          -433.435298020015580  (MACRO    4)

 - Nuclear repulsion      :           412.588060063179910
 - Inactive energy        :          -827.636414566630265
 - Active energy          :           -18.386943516565243

 Norm of total gradient   :             0.019986344139
 -    of CI gradient      :             0.018273825294
 -    of orbital gradient :             0.008094520442
      Virial theorem: -V/T =      1.997106
@    MULPOP   C       2.40; C   _1  0.46; C   _2  0.46; C   _1  0.76; C   _2  0.76; C       0.45; N       0.03; O   _1 -0.72; O   _2 -0.72; H   _1 -1.37; 
@             H   _2 -1.37; H   _1 -0.39; H   _2 -0.39; H      -0.37; 

 Residual norm when dim(red L) =  10
 NEO root     CSF        orbital          total
    1     0.05031477     0.08601589     0.09965094 converged

 (NEONEX) NEO auxiliary root no.  1 is converged.

 Residual norm when dim(red L) =  16
 NEO root     CSF        orbital          total
    2     0.00246251     0.00107000     0.00268493 converged

 (NEONEX) NEO vector is converged.

   --- OUTPUT FROM SIRCNO     Keyword = FD+NO 


 Occupations of CAS natural orbitals:

 Symmetry  1 ( irrep A1  in C2v )

   1.997581224

 Symmetry  2 ( irrep B1  in C2v )

   1.999768332

 Symmetry  3 ( irrep B2  in C2v )

   1.605757446   0.443556128

 Symmetry  4 ( irrep A2  in C2v )

   1.947903625   1.903076250   0.102356995


 --- MACRO ITERATION  5 ---
 --------------------------

 2-el. integral transformation level 3: Total CPU and WALL times (sec)     100.766     100.779

 Fock matrix screening setting for this macro iteration: 10^( -9)

 Total MCSCF energy       :          -433.435700349399099  (MACRO    5)

 - Nuclear repulsion      :           412.588060063179910
 - Inactive energy        :          -826.957019567929365
 - Active energy          :           -19.066740844649662

 Norm of total gradient   :             0.033318579092
 -    of CI gradient      :             0.033079462726
 -    of orbital gradient :             0.003984577580
      Virial theorem: -V/T =      1.997137
@    MULPOP   C       2.41; C   _1  0.46; C   _2  0.46; C   _1  0.77; C   _2  0.77; C       0.45; N       0.03; O   _1 -0.72; O   _2 -0.72; H   _1 -1.38; 
@             H   _2 -1.38; H   _1 -0.39; H   _2 -0.39; H      -0.37; 

 Residual norm when dim(red L) =  12
 NEO root     CSF        orbital          total
    2     0.00320015     0.00220911     0.00388859 converged

 (NEONEX) NEO vector is converged.

   --- OUTPUT FROM SIRCNO     Keyword = FD+NO 


 Occupations of CAS natural orbitals:

 Symmetry  1 ( irrep A1  in C2v )

   1.998880824

 Symmetry  2 ( irrep B1  in C2v )

   1.999817333

 Symmetry  3 ( irrep B2  in C2v )

   1.606406902   0.439995837

 Symmetry  4 ( irrep A2  in C2v )

   1.949612805   1.903908081   0.101378218


 --- MACRO ITERATION  6 ---
 --------------------------

 2-el. integral transformation level 3: Total CPU and WALL times (sec)     100.844     100.944

 Fock matrix screening setting for this macro iteration: 10^( -9)

 Total MCSCF energy       :          -433.436016044228666  (MACRO    6)

 - Nuclear repulsion      :           412.588060063179910
 - Inactive energy        :          -826.927955756891492
 - Active energy          :           -19.096120350517090

 Norm of total gradient   :             0.005361942981
 -    of CI gradient      :             0.004557406953
 -    of orbital gradient :             0.002824973344
      Virial theorem: -V/T =      1.997145
@    MULPOP   C       2.41; C   _1  0.47; C   _2  0.47; C   _1  0.77; C   _2  0.77; C       0.45; N       0.03; O   _1 -0.72; O   _2 -0.72; H   _1 -1.38; 
@             H   _2 -1.38; H   _1 -0.40; H   _2 -0.40; H      -0.37; 

 Residual norm when dim(red L) =  12
 NEO root     CSF        orbital          total
    1     0.05170230     0.04294228     0.06720988 converged

 (NEONEX) NEO auxiliary root no.  1 is converged.

[...]
      ----------------------------------------------------------------
         1    1.04566D+02  6.89D+01  7.86D+01  1.11D+04    1.16800D-01

 ** RSPCTL MICROITERATION NUMBER   15

 *** INFO, negative eigenvalues in reduced matrix. Symmetry  1,  triplet       F Dimension of reduced matrix =    32

 GP * SOLUTION vector at frequency     0.11680 a.u.
 after   16 linear transformations is      6.98632821D+04
 INERTIA (POS,ZER,NEG) of reduced matrix is   30    0    2
 Determinant of reduced matrix is  4.96 * 10 **-33.0

       No.  Residual tot.,    conf., and orb.    Bnorm      Frequency 
      ----------------------------------------------------------------
         1    1.48012D+02  1.09D+02  9.98D+01  1.23D+04    1.16800D-01

 ** RSPCTL MICROITERATION NUMBER   16

 *** INFO, negative eigenvalues in reduced matrix. Symmetry  1,  triplet       F Dimension of reduced matrix =    34

 GP * SOLUTION vector at frequency     0.11680 a.u.
 after   17 linear transformations is     -3.25907264D+03
 INERTIA (POS,ZER,NEG) of reduced matrix is   31    0    3
 Determinant of reduced matrix is -2.43 * 10 **-34.0

       No.  Residual tot.,    conf., and orb.    Bnorm      Frequency 
      ----------------------------------------------------------------
         1    2.76789D+02  3.08D+01  2.75D+02  9.84D+03    1.16800D-01

 ** RSPCTL MICROITERATION NUMBER   17

 *** INFO, negative eigenvalues in reduced matrix. Symmetry  1,  triplet       F Dimension of reduced matrix =    36

 GP * SOLUTION vector at frequency     0.11680 a.u.
 after   18 linear transformations is      2.63124567D+04
 INERTIA (POS,ZER,NEG) of reduced matrix is   33    0    3
 Determinant of reduced matrix is -7.54 * 10 **-36.0

       No.  Residual tot.,    conf., and orb.    Bnorm      Frequency 
      ----------------------------------------------------------------
         1    6.07175D+01  2.83D+01  5.37D+01  9.66D+03    1.16800D-01

 ** RSPCTL MICROITERATION NUMBER   18

 *** INFO, negative eigenvalues in reduced matrix. Symmetry  1,  triplet       F Dimension of reduced matrix =    38

 GP * SOLUTION vector at frequency     0.11680 a.u.
 after   19 linear transformations is      2.95201584D+04
 INERTIA (POS,ZER,NEG) of reduced matrix is   35    0    3
 Determinant of reduced matrix is -4.39 * 10 **-37.0

       No.  Residual tot.,    conf., and orb.    Bnorm      Frequency 
      ----------------------------------------------------------------
         1    5.09527D+01  2.65D+01  4.35D+01  9.77D+03    1.16800D-01

 ** RSPCTL MICROITERATION NUMBER   19

 *** INFO, negative eigenvalues in reduced matrix. Symmetry  1,  triplet       F Dimension of reduced matrix =    40

 GP * SOLUTION vector at frequency     0.11680 a.u.
 after   20 linear transformations is      3.09469644D+04
 INERTIA (POS,ZER,NEG) of reduced matrix is   37    0    3
 Determinant of reduced matrix is -1.95 * 10 **-38.0

       No.  Residual tot.,    conf., and orb.    Bnorm      Frequency 
      ----------------------------------------------------------------
         1    3.81343D+01  2.49D+01  2.89D+01  9.75D+03    1.16800D-01

 ** RSPCTL MICROITERATION NUMBER   20

 *** INFO, negative eigenvalues in reduced matrix. Symmetry  1,  triplet       F Dimension of reduced matrix =    42

 GP * SOLUTION vector at frequency     0.11680 a.u.
 after   21 linear transformations is      3.16247773D+04
 INERTIA (POS,ZER,NEG) of reduced matrix is   39    0    3
 Determinant of reduced matrix is -1.51 * 10 **-39.0

       No.  Residual tot.,    conf., and orb.    Bnorm      Frequency 
      ----------------------------------------------------------------
         1    3.50587D+01  2.38D+01  2.57D+01  9.67D+03    1.16800D-01

 ** RSPCTL MICROITERATION NUMBER   21

 *** INFO, negative eigenvalues in reduced matrix. Symmetry  1,  triplet       F Dimension of reduced matrix =    44

 GP * SOLUTION vector at frequency     0.11680 a.u.
 after   22 linear transformations is      3.25685293D+04
 INERTIA (POS,ZER,NEG) of reduced matrix is   41    0    3
 Determinant of reduced matrix is -4.10 * 10 **-41.0

       No.  Residual tot.,    conf., and orb.    Bnorm      Frequency 
      ----------------------------------------------------------------
         1    4.01535D+01  2.19D+01  3.37D+01  9.60D+03    1.16800D-01

 ** RSPCTL MICROITERATION NUMBER   22

 *** INFO, negative eigenvalues in reduced matrix. Symmetry  1,  triplet       F Dimension of reduced matrix =    46

 GP * SOLUTION vector at frequency     0.11680 a.u.
 after   23 linear transformations is      3.97975055D+04
 INERTIA (POS,ZER,NEG) of reduced matrix is   43    0    3
 Determinant of reduced matrix is -2.93 * 10 **-43.0

       No.  Residual tot.,    conf., and orb.    Bnorm      Frequency 
      ----------------------------------------------------------------
         1    1.39456D+02  2.55D+01  1.37D+02  9.68D+03    1.16800D-01

 ** RSPCTL MICROITERATION NUMBER   23

 *** INFO, negative eigenvalues in reduced matrix. Symmetry  1,  triplet       F Dimension of reduced matrix =    48

 GP * SOLUTION vector at frequency     0.11680 a.u.
 after   24 linear transformations is      2.10843857D+04
 INERTIA (POS,ZER,NEG) of reduced matrix is   44    0    4
 Determinant of reduced matrix is  1.33 * 10 **-44.0

       No.  Residual tot.,    conf., and orb.    Bnorm      Frequency 
      ----------------------------------------------------------------
         1    1.11305D+02  5.83D+01  9.48D+01  9.90D+03    1.16800D-01

 ** RSPCTL MICROITERATION NUMBER   24

 *** INFO, negative eigenvalues in reduced matrix. Symmetry  1,  triplet       F Dimension of reduced matrix =    50

 GP * SOLUTION vector at frequency     0.11680 a.u.
 after   25 linear transformations is      2.48236100D+04
 INERTIA (POS,ZER,NEG) of reduced matrix is   46    0    4
 Determinant of reduced matrix is  3.02 * 10 **-45.0

       No.  Residual tot.,    conf., and orb.    Bnorm      Frequency 
      ----------------------------------------------------------------
         1    5.07357D+01  4.30D+01  2.70D+01  9.87D+03    1.16800D-01

 ** RSPCTL MICROITERATION NUMBER   25

 *** INFO, negative eigenvalues in reduced matrix. Symmetry  1,  triplet       F Dimension of reduced matrix =    52

 GP * SOLUTION vector at frequency     0.11680 a.u.
 after   26 linear transformations is      2.72672383D+04
 INERTIA (POS,ZER,NEG) of reduced matrix is   48    0    4
 Determinant of reduced matrix is  7.45 * 10 **-46.0

       No.  Residual tot.,    conf., and orb.    Bnorm      Frequency 
      ----------------------------------------------------------------
         1    3.82493D+01  1.75D+01  3.40D+01  9.95D+03    1.16800D-01

 ** RSPCTL MICROITERATION NUMBER   26

 *** INFO, negative eigenvalues in reduced matrix. Symmetry  1,  triplet       F Dimension of reduced matrix =    54

 GP * SOLUTION vector at frequency     0.11680 a.u.
 after   27 linear transformations is      2.79251647D+04
 INERTIA (POS,ZER,NEG) of reduced matrix is   50    0    4
 Determinant of reduced matrix is  6.95 * 10 **-48.0

       No.  Residual tot.,    conf., and orb.    Bnorm      Frequency 
      ----------------------------------------------------------------
         1    2.20377D+01  1.81D+01  1.26D+01  9.98D+03    1.16800D-01

 ** RSPCTL MICROITERATION NUMBER   27

 *** INFO, negative eigenvalues in reduced matrix. Symmetry  1,  triplet       F Dimension of reduced matrix =    56

 GP * SOLUTION vector at frequency     0.11680 a.u.
 after   28 linear transformations is      2.82280567D+04
 INERTIA (POS,ZER,NEG) of reduced matrix is   52    0    4
 Determinant of reduced matrix is  3.13 * 10 **-48.0

       No.  Residual tot.,    conf., and orb.    Bnorm      Frequency 
      ----------------------------------------------------------------
         1    1.37899D+01  6.75D+00  1.20D+01  9.93D+03    1.16800D-01

 ** RSPCTL MICROITERATION NUMBER   28

 *** INFO, negative eigenvalues in reduced matrix. Symmetry  1,  triplet       F Dimension of reduced matrix =    58

 GP * SOLUTION vector at frequency     0.11680 a.u.
 after   29 linear transformations is      2.83712259D+04
 INERTIA (POS,ZER,NEG) of reduced matrix is   54    0    4
 Determinant of reduced matrix is  3.84 * 10 **-51.0

       No.  Residual tot.,    conf., and orb.    Bnorm      Frequency 
      ----------------------------------------------------------------
         1    9.70016D+00  7.51D+00  6.14D+00  9.93D+03    1.16800D-01

 *** THE REQUESTED    1 SOLUTION VECTORS CONVERGED

 Convergence of RSP solution vectors, threshold = 1.00D-03
 ---------------------------------------------------------------
 (dimension of paired reduced space:   58)
 RSP solution vector no.    1; norm of residual   9.77D-04

 *** RSPCTL MICROITERATIONS CONVERGED
    YDIPLEN     YDIPLEN      freq1     freq2                Norm
 ---------------------------------------------------------------
                          0.058400  0.058400       9933.46886013
  Time used in CRVEC2     is       3 hours 40 minutes  1 second 


 ----- CALCULATING CONTRIBUTIONS TO SECOND HYPERPOLARIZABILITY -----


   Contribution                Term         Accumulated
 ------------------------------------------------------
 Na T[4] Nb Nc Nd 96267451.78426328   96267451.78426328
 Na T[3] Nx Nyz   66856699.80174585  163124151.58600914
 Na X[3] Ny Nz     9763156.06400096  172887307.65001011
 Nx A[3] Ny Nz     3254385.35466697  176141693.00467706
 Na X[2] Nyz     -19374975.56620398  156766717.43847308
 Nx A[2] Nyz     -18988795.46919129  137777921.96928179

@ Cubic response function value in a.u. for
@ A operator, symmetry, frequency:   ZDIPLEN    1 -0.058400
@ B operator, symmetry, frequency:   ZDIPLEN    1  0.058400
@ C operator, symmetry, frequency:   ZDIPLEN    1 -0.058400
@ D operator, symmetry, frequency:   ZDIPLEN    1  0.058400

@ << A; B, C, D >>  =   137777921.96928179



   Contribution                Term         Accumulated
 ------------------------------------------------------
 Na T[4] Nb Nc Nd261615290.45554447  261615290.45554447
 Na T[3] Nx Nyz  164524401.99071634  426139692.44626069
 Na X[3] Ny Nz    -4089378.36656467  422050314.07969600
 Nx A[3] Ny Nz     -359060.12114619  421691253.95854980
 Na X[2] Nyz       4384711.54146735  426075965.50001717
 Nx A[2] Nyz      -9222526.69700108  416853438.80301607

@ Cubic response function value in a.u. for
@ A operator, symmetry, frequency:   XDIPLEN    2 -0.058400
@ B operator, symmetry, frequency:   XDIPLEN    2  0.058400
@ C operator, symmetry, frequency:   ZDIPLEN    1 -0.058400
@ D operator, symmetry, frequency:   ZDIPLEN    1  0.058400

@ << A; B, C, D >>  =   416853438.80301607



   Contribution                Term         Accumulated
 ------------------------------------------------------
 Na T[4] Nb Nc Nd    43925.39215762      43925.39215762
 Na T[3] Nx Nyz      44628.61432352      88554.00648114
 Na X[3] Ny Nz      105048.97354663     193602.98002777
 Nx A[3] Ny Nz       79682.68873504     273285.66876281
 Na X[2] Nyz         31318.03841056     304603.70717337
 Nx A[2] Nyz       -200683.71569433     103919.99147904

@ Cubic response function value in a.u. for
@ A operator, symmetry, frequency:   YDIPLEN    3 -0.058400
@ B operator, symmetry, frequency:   YDIPLEN    3  0.058400
@ C operator, symmetry, frequency:   ZDIPLEN    1 -0.058400
@ D operator, symmetry, frequency:   ZDIPLEN    1  0.058400

@ << A; B, C, D >>  =      103919.99147904



   Contribution                Term         Accumulated
 ------------------------------------------------------
 Na T[4] Nb Nc Nd -7787902.74988209   -7787902.74988209
 Na T[3] Nx Nyz  300458588.68156838  292670685.93168628
 Na X[3] Ny Nz      213650.47284766  292884336.40453392
 Nx A[3] Ny Nz      -61939.04429875  292822397.36023515
 Na X[2] Nyz    -234172296.74543676   58650100.61479840
 Nx A[2] Nyz    -167707087.10586870 -109056986.49107030

@ Cubic response function value in a.u. for
@ A operator, symmetry, frequency:   XDIPLEN    2 -0.058400
@ B operator, symmetry, frequency:   ZDIPLEN    1  0.058400
@ C operator, symmetry, frequency:   XDIPLEN    2 -0.058400
@ D operator, symmetry, frequency:   ZDIPLEN    1  0.058400

@ << A; B, C, D >>  =  -109056986.49107030



   Contribution                Term         Accumulated
 ------------------------------------------------------
 Na T[4] Nb Nc Nd   214948.56048309     214948.56048309
 Na T[3] Nx Nyz   -5322143.09470022   -5107194.53421713
 Na X[3] Ny Nz       85346.13494185   -5021848.39927528
 Nx A[3] Ny Nz       65408.93279653   -4956439.46647875
 Na X[2] Nyz        597697.96203235   -4358741.50444639
 Nx A[2] Nyz        303797.76931011   -4054943.73513629

@ Cubic response function value in a.u. for
@ A operator, symmetry, frequency:   YDIPLEN    3 -0.058400
@ B operator, symmetry, frequency:   ZDIPLEN    1  0.058400
@ C operator, symmetry, frequency:   YDIPLEN    3 -0.058400
@ D operator, symmetry, frequency:   ZDIPLEN    1  0.058400

@ << A; B, C, D >>  =    -4054943.73513629



   Contribution                Term         Accumulated
 ------------------------------------------------------
 Na T[4] Nb Nc Nd 25258331.02753879   25258331.02753879
 Na T[3] Nx Nyz -193097576.41599521 -167839245.38845640
 Na X[3] Ny Nz      263419.70424560 -167575825.68421078
 Nx A[3] Ny Nz      220962.43666309 -167354863.24754769
 Na X[2] Nyz      51175651.14132315 -116179212.10622454
 Nx A[2] Nyz       7084464.26707927 -109094747.83914527

@ Cubic response function value in a.u. for
@ A operator, symmetry, frequency:   ZDIPLEN    1 -0.058400
@ B operator, symmetry, frequency:   XDIPLEN    2  0.058400
@ C operator, symmetry, frequency:   ZDIPLEN    1 -0.058400
@ D operator, symmetry, frequency:   XDIPLEN    2  0.058400

@ << A; B, C, D >>  =  -109094747.83914527



   Contribution                Term         Accumulated
 ------------------------------------------------------
 Na T[4] Nb Nc Nd******************54450774489.79365540
 Na T[3] Nx Nyz********************-7908775404.49877930
 Na X[3] Ny Nz  -335492765.11013621-8244268169.60891438
 Nx A[3] Ny Nz  -111830921.70337796-8356099091.31229305
 Na X[2] Nyz     493607260.23547745-7862491831.07681561
 Nx A[2] Nyz     534792920.12204337-7327698910.95477200

@ Cubic response function value in a.u. for
@ A operator, symmetry, frequency:   XDIPLEN    2 -0.058400
@ B operator, symmetry, frequency:   XDIPLEN    2  0.058400
@ C operator, symmetry, frequency:   XDIPLEN    2 -0.058400
@ D operator, symmetry, frequency:   XDIPLEN    2  0.058400

@ << A; B, C, D >>  = -7327698910.95477200



   Contribution                Term         Accumulated
 ------------------------------------------------------
 Na T[4] Nb Nc Nd 19846416.41869145   19846416.41869145
 Na T[3] Nx Nyz-3397228881.88847017-3377382465.46977901
 Na X[3] Ny Nz     1567020.34507859-3375815445.12470055
 Nx A[3] Ny Nz     1674070.29080796-3374141374.83389282
 Na X[2] Nyz    -215327278.98352346-3589468653.81741619
 Nx A[2] Nyz   20291250870.8359718316701782217.01855469

@ Cubic response function value in a.u. for
@ A operator, symmetry, frequency:   YDIPLEN    3 -0.058400
@ B operator, symmetry, frequency:   YDIPLEN    3  0.058400
@ C operator, symmetry, frequency:   XDIPLEN    2 -0.058400
@ D operator, symmetry, frequency:   XDIPLEN    2  0.058400

@ << A; B, C, D >>  = 16701782217.01855469



   Contribution                Term         Accumulated
 ------------------------------------------------------
 Na T[4] Nb Nc Nd   -29892.97301382     -29892.97301382
 Na T[3] Nx Nyz    3605702.69386263    3575809.72084881
 Na X[3] Ny Nz      156869.59797465    3732679.31882345
 Nx A[3] Ny Nz      -35608.48139129    3697070.83743217
 Na X[2] Nyz      -2354448.10549596    1342622.73193621
 Nx A[2] Nyz       1653612.36003773    2996235.09197394

@ Cubic response function value in a.u. for
@ A operator, symmetry, frequency:   YDIPLEN    3 -0.058400
@ B operator, symmetry, frequency:   XDIPLEN    2  0.058400
@ C operator, symmetry, frequency:   YDIPLEN    3 -0.058400
@ D operator, symmetry, frequency:   XDIPLEN    2  0.058400

@ << A; B, C, D >>  =     2996235.09197394



   Contribution                Term         Accumulated
 ------------------------------------------------------
 Na T[4] Nb Nc Nd   177642.26929446     177642.26929446
 Na T[3] Nx Nyz   -4051346.23461947   -3873703.96532501
 Na X[3] Ny Nz      102274.84511188   -3771429.12021313
 Nx A[3] Ny Nz       -2868.60611195   -3774297.72632508
 Na X[2] Nyz       -328378.93446795   -4102676.66079303
 Nx A[2] Nyz         20238.75907709   -4082437.90171594

@ Cubic response function value in a.u. for
@ A operator, symmetry, frequency:   ZDIPLEN    1 -0.058400
@ B operator, symmetry, frequency:   YDIPLEN    3  0.058400
@ C operator, symmetry, frequency:   ZDIPLEN    1 -0.058400
@ D operator, symmetry, frequency:   YDIPLEN    3  0.058400

@ << A; B, C, D >>  =    -4082437.90171594



   Contribution                Term         Accumulated
 ------------------------------------------------------
 Na T[4] Nb Nc Nd   363847.45965435     363847.45965435
 Na T[3] Nx Nyz   -6358731.59458062   -5994884.13492627
 Na X[3] Ny Nz     -263762.26269592   -6258646.39762219
 Nx A[3] Ny Nz         -22.40684914   -6258668.80447133
 Na X[2] Nyz       7727273.03620416    1468604.23173283
 Nx A[2] Nyz       1560699.44431331    3029303.67604614

@ Cubic response function value in a.u. for
@ A operator, symmetry, frequency:   XDIPLEN    2 -0.058400
@ B operator, symmetry, frequency:   YDIPLEN    3  0.058400
@ C operator, symmetry, frequency:   XDIPLEN    2 -0.058400
@ D operator, symmetry, frequency:   YDIPLEN    3  0.058400

@ << A; B, C, D >>  =     3029303.67604614



   Contribution                Term         Accumulated
 ------------------------------------------------------
 Na T[4] Nb Nc Nd    20449.59228148      20449.59228148
 Na T[3] Nx Nyz    -139094.59381927    -118645.00153779
 Na X[3] Ny Nz       12789.91355076    -105855.08798703
 Nx A[3] Ny Nz        4263.30451692    -101591.78347011
 Na X[2] Nyz        -30238.97764278    -131830.76111289
 Nx A[2] Nyz        -29264.94734448    -161095.70845737

@ Cubic response function value in a.u. for
@ A operator, symmetry, frequency:   YDIPLEN    3 -0.058400
@ B operator, symmetry, frequency:   YDIPLEN    3  0.058400
@ C operator, symmetry, frequency:   YDIPLEN    3 -0.058400
@ D operator, symmetry, frequency:   YDIPLEN    3  0.058400

@ << A; B, C, D >>  =     -161095.70845737



  Summary of gamma values for a set of frequencies
 -------------------------------------------------

@ B-freq:  0.058400
@ C-freq: -0.058400
@ D-freq:  0.058400

@ gamma(X;X,X,X) 7327698910.9548
@ gamma(X;X,Y,Y)****************
@ gamma(X;Y,Y,X)****************
@ gamma(X;Y,X,Y)   -3029303.6760
@ gamma(X;X,Z,Z) -416853438.8030
@ gamma(X;Z,Z,X) -416853438.8030
@ gamma(X;Z,X,Z)  109056986.4911
@ gamma(Y;Y,X,X)****************
@ gamma(Y;X,X,Y)****************
@ gamma(Y;X,Y,X)   -2996235.0920
@ gamma(Y;Y,Y,Y)     161095.7085
@ gamma(Y;Y,Z,Z)    -103919.9915
@ gamma(Y;Z,Z,Y)    -103919.9915
@ gamma(Y;Z,Y,Z)    4054943.7351
@ gamma(Z;Z,X,X) -416853438.8030
@ gamma(Z;X,X,Z) -416853438.8030
@ gamma(Z;X,Z,X)  109094747.8391
@ gamma(Z;Z,Y,Y)    -103919.9915
@ gamma(Z;Y,Y,Z)    -103919.9915
@ gamma(Z;Y,Z,Y)    4082437.9017
@ gamma(Z;Z,Z,Z) -137777921.9693

@ Averaged gamma parallel to the applied field is ****************

  Total CPU  time used in RESPONSE:   8 hours 51 minutes 42 seconds
  Total wall time used in RESPONSE:   8 hours 52 minutes  4 seconds


                   .-------------------------------------------.
                   | End of Dynamic Property Section (RESPONS) |
                   `-------------------------------------------'

  Total CPU  time used in DALTON:  13 hours 31 minutes  9 seconds
  Total wall time used in DALTON:  13 hours 31 minutes 42 seconds

 
     Date and time (Linux)  : Sat Dec 21 00:26:02 2019
     Host name              : Lab2-333-NPs                            
