

     ************************************************************************
     *************** Dalton - An Electronic Structure Program ***************
     ************************************************************************

    This is output from DALTON release Dalton2018.1 (2019)
         ( Web site: http://daltonprogram.org )

   ----------------------------------------------------------------------------

    NOTE:
     
    Dalton is an experimental code for the evaluation of molecular
    properties using (MC)SCF, DFT, CI, and CC wave functions.
    The authors accept no responsibility for the performance of
    the code or for the correctness of the results.
     
    The code (in whole or part) is provided under a licence and
    is not to be reproduced for further distribution without
    the written permission of the authors or their representatives.
     
    See the home page "http://daltonprogram.org" for further information.
     
    If results obtained with this code are published,
    the appropriate citations would be both of:
     
       K. Aidas, C. Angeli, K. L. Bak, V. Bakken, R. Bast,
       L. Boman, O. Christiansen, R. Cimiraglia, S. Coriani,
       P. Dahle, E. K. Dalskov, U. Ekstroem,
       T. Enevoldsen, J. J. Eriksen, P. Ettenhuber, B. Fernandez,
       L. Ferrighi, H. Fliegl, L. Frediani, K. Hald, A. Halkier,
       C. Haettig, H. Heiberg, T. Helgaker, A. C. Hennum,
       H. Hettema, E. Hjertenaes, S. Hoest, I.-M. Hoeyvik,
       M. F. Iozzi, B. Jansik, H. J. Aa. Jensen, D. Jonsson,
       P. Joergensen, J. Kauczor, S. Kirpekar,
       T. Kjaergaard, W. Klopper, S. Knecht, R. Kobayashi, H. Koch,
       J. Kongsted, A. Krapp, K. Kristensen, A. Ligabue,
       O. B. Lutnaes, J. I. Melo, K. V. Mikkelsen, R. H. Myhre,
       C. Neiss, C. B. Nielsen, P. Norman, J. Olsen,
       J. M. H. Olsen, A. Osted, M. J. Packer, F. Pawlowski,
       T. B. Pedersen, P. F. Provasi, S. Reine, Z. Rinkevicius,
       T. A. Ruden, K. Ruud, V. Rybkin, P. Salek, C. C. M. Samson,
       A. Sanchez de Meras, T. Saue, S. P. A. Sauer,
       B. Schimmelpfennig, K. Sneskov, A. H. Steindal,
       K. O. Sylvester-Hvid, P. R. Taylor, A. M. Teale,
       E. I. Tellgren, D. P. Tew, A. J. Thorvaldsen, L. Thoegersen,
       O. Vahtras, M. A. Watson, D. J. D. Wilson, M. Ziolkowski
       and H. Agren,
       "The Dalton quantum chemistry program system",
       WIREs Comput. Mol. Sci. 2014, 4:269–284 (doi: 10.1002/wcms.1172)
     
    and
     
       Dalton, a molecular electronic structure program,
       Release Dalton2018.1 (2019), see http://daltonprogram.org
   ----------------------------------------------------------------------------

    Authors in alphabetical order (major contribution(s) in parenthesis):

  Kestutis Aidas,           Vilnius University,           Lithuania   (QM/MM)
  Celestino Angeli,         University of Ferrara,        Italy       (NEVPT2)
  Keld L. Bak,              UNI-C,                        Denmark     (AOSOPPA, non-adiabatic coupling, magnetic properties)
  Vebjoern Bakken,          University of Oslo,           Norway      (DALTON; geometry optimizer, symmetry detection)
  Radovan Bast,             UiT The Arctic U. of Norway,  Norway      (DALTON installation and execution frameworks)
  Pablo Baudin,             University of Valencia,       Spain       (Cholesky excitation energies)
  Linus Boman,              NTNU,                         Norway      (Cholesky decomposition and subsystems)
  Ove Christiansen,         Aarhus University,            Denmark     (CC module)
  Renzo Cimiraglia,         University of Ferrara,        Italy       (NEVPT2)
  Sonia Coriani,            Technical Univ. of Denmark,   Denmark     (CC module, MCD in RESPONS)
  Janusz Cukras,            University of Trieste,        Italy       (MChD in RESPONS)
  Paal Dahle,               University of Oslo,           Norway      (Parallelization)
  Erik K. Dalskov,          UNI-C,                        Denmark     (SOPPA)
  Thomas Enevoldsen,        Univ. of Southern Denmark,    Denmark     (SOPPA)
  Janus J. Eriksen,         Aarhus University,            Denmark     (Polarizable embedding model, TDA)
  Rasmus Faber,             University of Copenhagen,     Denmark     (Vib.avg. NMR with SOPPA, parallel AO-SOPPA)
  Tobias Fahleson,          KTH Stockholm,                Sweden      (Damped cubic response)
  Berta Fernandez,          U. of Santiago de Compostela, Spain       (doublet spin, ESR in RESPONS)
  Lara Ferrighi,            Aarhus University,            Denmark     (PCM Cubic response)
  Heike Fliegl,             University of Oslo,           Norway      (CCSD(R12))
  Luca Frediani,            UiT The Arctic U. of Norway,  Norway      (PCM)
  Bin Gao,                  UiT The Arctic U. of Norway,  Norway      (Gen1Int library)
  Christof Haettig,         Ruhr-University Bochum,       Germany     (CC module)
  Kasper Hald,              Aarhus University,            Denmark     (CC module)
  Asger Halkier,            Aarhus University,            Denmark     (CC module)
  Frederik Beyer Hansen,    University of Copenhagen,     Denmark     (Parallel AO-SOPPA)
  Erik D. Hedegaard,        Univ. of Southern Denmark,    Denmark     (Polarizable embedding model, QM/MM)
  Hanne Heiberg,            University of Oslo,           Norway      (geometry analysis, selected one-electron integrals)
  Trygve Helgaker,          University of Oslo,           Norway      (DALTON; ABACUS, ERI, DFT modules, London, and much more)
  Alf Christian Hennum,     University of Oslo,           Norway      (Parity violation)
  Hinne Hettema,            University of Auckland,       New Zealand (quadratic response in RESPONS; SIRIUS supersymmetry)
  Eirik Hjertenaes,         NTNU,                         Norway      (Cholesky decomposition)
  Pi A. B. Haase,           University of Copenhagen,     Denmark     (Triplet AO-SOPPA)
  Maria Francesca Iozzi,    University of Oslo,           Norway      (RPA)
  Christoph Jacob           TU Braunschweig               Germany     (Frozen density embedding model)
  Brano Jansik              Technical Univ. of Ostrava    Czech Rep.  (DFT cubic response)
  Hans Joergen Aa. Jensen,  Univ. of Southern Denmark,    Denmark     (DALTON; SIRIUS, RESPONS, ABACUS modules, London, and much more)
  Dan Jonsson,              UiT The Arctic U. of Norway,  Norway      (cubic response in RESPONS module)
  Poul Joergensen,          Aarhus University,            Denmark     (RESPONS, ABACUS, and CC modules)
  Maciej Kaminski,          University of Warsaw,         Poland      (CPPh in RESPONS)
  Joanna Kauczor,           Linkoeping University,        Sweden      (Complex polarization propagator (CPP) module)
  Sheela Kirpekar,          Univ. of Southern Denmark,    Denmark     (Mass-velocity & Darwin integrals)
  Wim Klopper,              KIT Karlsruhe,                Germany     (R12 code in CC, SIRIUS, and ABACUS modules)
  Stefan Knecht,            ETH Zurich,                   Switzerland (Parallel CI and MCSCF)
  Rika Kobayashi,           Australian National Univ.,    Australia   (DIIS in CC, London in MCSCF)
  Henrik Koch,              NTNU,                         Norway      (CC module, Cholesky decomposition)
  Jacob Kongsted,           Univ. of Southern Denmark,    Denmark     (Polarizable embedding model, QM/MM)
  Andrea Ligabue,           University of Modena,         Italy       (CTOCD, AOSOPPA)
  Nanna H. List             Univ. of Southern Denmark,    Denmark     (Polarizable embedding model)
  Ola B. Lutnaes,           University of Oslo,           Norway      (DFT Hessian)
  Juan I. Melo,             University of Buenos Aires,   Argentina   (LRESC, Relativistic Effects on NMR Shieldings)
  Kurt V. Mikkelsen,        University of Copenhagen,     Denmark     (MC-SCRF and QM/MM)
  Rolf H. Myhre,            NTNU,                         Norway      (Subsystems and CC3)
  Christian Neiss,          Univ. Erlangen-Nuernberg,     Germany     (CCSD(R12))
  Christian B. Nielsen,     University of Copenhagen,     Denmark     (QM/MM)
  Patrick Norman,           KTH Stockholm,                Sweden      (Cubic response and complex frequency response in RESPONS)
  Jeppe Olsen,              Aarhus University,            Denmark     (SIRIUS CI/density modules)
  Jogvan Magnus H. Olsen,   Univ. of Southern Denmark,    Denmark     (Polarizable embedding model, QM/MM)
  Anders Osted,             Copenhagen University,        Denmark     (QM/MM)
  Martin J. Packer,         University of Sheffield,      UK          (SOPPA)
  Filip Pawlowski,          Kazimierz Wielki University,  Poland      (CC3)
  Morten N. Pedersen,       Univ. of Southern Denmark,    Denmark     (Polarizable embedding model)
  Thomas B. Pedersen,       University of Oslo,           Norway      (Cholesky decomposition)
  Patricio F. Provasi,      University of Northeastern,   Argentina   (Analysis of coupling constants in localized orbitals)
  Zilvinas Rinkevicius,     KTH Stockholm,                Sweden      (open-shell DFT, ESR)
  Elias Rudberg,            KTH Stockholm,                Sweden      (DFT grid and basis info)
  Torgeir A. Ruden,         University of Oslo,           Norway      (Numerical derivatives in ABACUS)
  Kenneth Ruud,             UiT The Arctic U. of Norway,  Norway      (DALTON; ABACUS magnetic properties and much more)
  Pawel Salek,              KTH Stockholm,                Sweden      (DALTON; DFT code)
  Claire C. M. Samson       University of Karlsruhe       Germany     (Boys localization, r12 integrals in ERI)
  Alfredo Sanchez de Meras, University of Valencia,       Spain       (CC module, Cholesky decomposition)
  Trond Saue,               Paul Sabatier University,     France      (direct Fock matrix construction)
  Stephan P. A. Sauer,      University of Copenhagen,     Denmark     (SOPPA(CCSD), SOPPA prop., AOSOPPA, vibrational g-factors)
  Andre S. P. Gomes,        CNRS/Universite de Lille,     France      (Frozen density embedding model)
  Bernd Schimmelpfennig,    Forschungszentrum Karlsruhe,  Germany     (AMFI module)
  Kristian Sneskov,         Aarhus University,            Denmark     (Polarizable embedding model, QM/MM)
  Arnfinn H. Steindal,      UiT The Arctic U. of Norway,  Norway      (parallel QM/MM, Polarizable embedding model)
  Casper Steinmann,         Univ. of Southern Denmark,    Denmark     (QFIT, Polarizable embedding model)
  K. O. Sylvester-Hvid,     University of Copenhagen,     Denmark     (MC-SCRF)
  Peter R. Taylor,          VLSCI/Univ. of Melbourne,     Australia   (Symmetry handling ABACUS, integral transformation)
  Andrew M. Teale,          University of Nottingham,     England     (DFT-AC, DFT-D)
  David P. Tew,             University of Bristol,        England     (CCSD(R12))
  Olav Vahtras,             KTH Stockholm,                Sweden      (triplet response, spin-orbit, ESR, TDDFT, open-shell DFT)
  Lucas Visscher,           Vrije Universiteit Amsterdam, Netherlands (Frozen density embedding model)
  David J. Wilson,          La Trobe University,          Australia   (DFT Hessian and DFT magnetizabilities)
  Hans Agren,               KTH Stockholm,                Sweden      (SIRIUS module, RESPONS, MC-SCRF solvation model)
 --------------------------------------------------------------------------------

     Date and time (Linux)  : Mon Dec 16 07:36:54 2019
     Host name              : Lab2-333-NPs                            

 * Work memory size             :  1024000000 =  7.629 gigabytes.

 * Directories for basis set searches:
   1) /home/lab333/dalton/build_2018_atlas
   2) /home/lab333/dalton/build_2018_atlas/basis


Compilation information
-----------------------

 Who compiled             | lab333
 Host                     | Lab2-333-NPs
 System                   | Linux-4.4.0-43-Microsoft
 CMake generator          | Unix Makefiles
 Processor                | x86_64
 64-bit integers          | OFF
 MPI                      | OFF
 Fortran compiler         | /usr/bin/gfortran
 Fortran compiler version | GNU Fortran (Ubuntu 7.3.0-27ubuntu1~18.04) 7.3.0
 C compiler               | /usr/bin/gcc
 C compiler version       | gcc (Ubuntu 7.3.0-27ubuntu1~18.04) 7.3.0
 C++ compiler             | /usr/bin/g++
 C++ compiler version     | g++ (Ubuntu 7.3.0-27ubuntu1~18.04) 7.3.0
 BLAS                     | /usr/lib/x86_64-linux-gnu/libf77blas.so;/usr/lib/x
                          | 86_64-linux-gnu/libcblas.so;/usr/lib/x86_64-linux-
                          | gnu/libatlas.so
 LAPACK                   | /usr/lib/x86_64-linux-gnu/libatlas.so;/usr/lib/x86
                          | _64-linux-gnu/atlas/liblapack.so
 Static linking           | OFF
 Last Git revision        | da625bf48c74028e805616daee31bc5d76b3a20d
 Git branch               | (HEAD detached at Dalton2018.1)
 Configuration time       | 2019-01-18 10:20:51.437510


   Content of the .dal input file
 ----------------------------------

**DALTON INPUT
.RUN RESPONSE
.DIRECT
**WAVE FUNCTIONS
.HF
.MP2
.MCSCF
*CONFIGURATION INPUT
.SPIN MULTIPLICITY
3
.SYMMETRY
1
.INACTIVE ORBITALS
15 10 2 0
.CAS SPACE
1 1 2 3
.ELECTRONS
10
*ORBITAL INPUT
.MOSTART
.HUCKEL
*OPTIMIZATION
.DETERMINANTS
.STATE
1
*CI VECTOR
.PLUS COMBINATIONS
**RESPONSE
*CUBIC
.DIPLEN
.BFREQ
1
0.0584
.CFREQ
1
-0.0584
.DFREQ
1
0.0584
**END OF DALTON INPUT


   Content of the .mol file
 ----------------------------

BASIS
aug-cc-pCVDZ
 nitrobenzene
 Generated by the Dalton Input File Plugin for Avogadro
Atomtypes=4 Angstrom Generators=2 X Y
Charge=6.0 Atoms=4
C        0.0000000000            0.0000000000           -0.0265759623
C       -1.2190534920            0.0000000000           -0.6979856948
C       -1.2105095870            0.0000000000           -2.0897394457
C        0.0000000000            0.0000000000           -2.7841484631
Charge=7.0 Atoms=1
N        0.0000000000            0.0000000000            1.4549291696
Charge=8.0 Atoms=1
O       0.5165807333051649            0.0            2.565419687282958
Charge=1.0 Atoms=3
H       -2.1410602955            0.0000000000           -0.1327964319
H       -2.1492827751            0.0000000000           -2.6311811056
H        0.0000000000            0.0000000000           -3.8683953478


       *******************************************************************
       *********** Output from DALTON general input processing ***********
       *******************************************************************

 --------------------------------------------------------------------------------
   Overall default print level:    0
   Print level for DALTON.STAT:    1

    AO-direct calculation (in sections where implemented)
    HERMIT 1- and 2-electron integral sections will be executed
    "Old" integral transformation used (limited to max 255 basis functions)
    Wave function sections will be executed (SIRIUS module)
    Dynamic molecular response properties section will be executed (RESPONSE module)
 --------------------------------------------------------------------------------


   ****************************************************************************
   *************** Output of molecule and basis set information ***************
   ****************************************************************************


    The two title cards from your ".mol" input:
    ------------------------------------------------------------------------
 1:  nitrobenzene                                                           
 2:  Generated by the Dalton Input File Plugin for Avogadro                 
    ------------------------------------------------------------------------

  Coordinates are entered in Angstrom and converted to atomic units.
          - Conversion factor : 1 bohr = 0.52917721 A

  Atomic type no.    1
  --------------------
  Nuclear charge:   6.00000
  Number of symmetry independent centers:    4
  Number of basis sets to read;    2
  Basis set file used for this atomic type with Z =   6 :
     "/home/lab333/dalton/build_2018_atlas/basis/aug-cc-pCVDZ"

  Atomic type no.    2
  --------------------
  Nuclear charge:   7.00000
  Number of symmetry independent centers:    1
  Number of basis sets to read;    2
  Basis set file used for this atomic type with Z =   7 :
     "/home/lab333/dalton/build_2018_atlas/basis/aug-cc-pCVDZ"

  Atomic type no.    3
  --------------------
  Nuclear charge:   8.00000
  Number of symmetry independent centers:    1
  Number of basis sets to read;    2
  Basis set file used for this atomic type with Z =   8 :
     "/home/lab333/dalton/build_2018_atlas/basis/aug-cc-pCVDZ"

  Atomic type no.    4
  --------------------
  Nuclear charge:   1.00000
  Number of symmetry independent centers:    3
  Number of basis sets to read;    2
  Basis set file used for this atomic type with Z =   1 :
     "/home/lab333/dalton/build_2018_atlas/basis/aug-cc-pCVDZ"


                         SYMGRP: Point group information
                         -------------------------------

@    Point group: C2v

@  * The irrep name for each symmetry:    1: A1     2: B1     3: B2     4: A2 

   * The point group was generated by:

      Reflection in the yz-plane
      Reflection in the xz-plane

   * Group multiplication table

        |  E   C2z  Oxz  Oyz
   -----+--------------------
     E  |  E   C2z  Oxz  Oyz
    C2z | C2z   E   Oyz  Oxz
    Oxz | Oxz  Oyz   E   C2z
    Oyz | Oyz  Oxz  C2z   E 

   * Character table

        |  E   C2z  Oxz  Oyz
   -----+--------------------
    A1  |   1    1    1    1
    B1  |   1   -1    1   -1
    B2  |   1   -1   -1    1
    A2  |   1    1   -1   -1

   * Direct product table

        | A1   B1   B2   A2 
   -----+--------------------
    A1  | A1   B1   B2   A2 
    B1  | B1   A1   A2   B2 
    B2  | B2   A2   A1   B1 
    A2  | A2   B2   B1   A1 


                                 Isotopic Masses
                                 ---------------

                           C          12.000000
                           C   _1     12.000000
                           C   _2     12.000000
                           C   _1     12.000000
                           C   _2     12.000000
                           C          12.000000
                           N          14.003074
                           O   _1     15.994915
                           O   _2     15.994915
                           H   _1      1.007825
                           H   _2      1.007825
                           H   _1      1.007825
                           H   _2      1.007825
                           H           1.007825

                       Total mass:   123.032029 amu
                       Natural abundance:  92.716 %

 Center-of-mass coordinates (a.u.):    0.000000    0.000000   -0.117703


  Atoms and basis sets
  --------------------

  Number of atom types :    4
  Total number of atoms:   14

  Basis set used is "aug-cc-pCVDZ" from the basis set library.

  label    atoms   charge   prim   cont     basis
  ----------------------------------------------------------------------
  C           6    6.0000    39    27      [11s6p2d|5s4p2d]                                   
  N           1    7.0000    39    27      [11s6p2d|5s4p2d]                                   
  O           2    8.0000    39    27      [11s6p2d|5s4p2d]                                   
  H           5    1.0000    11     9      [5s2p|3s2p]                                        
  ----------------------------------------------------------------------
  total:     14   64.0000   406   288
  ----------------------------------------------------------------------
  Spherical harmonic basis used.

  Threshold for neglecting AO integrals:  1.00D-12


  Symmetry Coordinates
  --------------------

  Number of coordinates in each symmetry:    14   14    9    5


   Interatomic separations (in Angstrom):
   --------------------------------------

            C           C   _1      C   _2      C   _1      C   _2      C     
            ------      ------      ------      ------      ------      ------
 C     :    0.000000
 C   _1:    1.391719    0.000000
 C   _2:    1.391719    2.438107    0.000000
 C   _1:    2.392065    1.391780    2.799956    0.000000
 C   _2:    2.392065    2.799956    1.391780    2.421019    0.000000
 C     :    2.757573    2.416230    2.416230    1.395542    1.395542    0.000000
 N     :    1.481505    2.474093    2.474093    3.745665    3.745665    4.239078
 O   _1:    2.642971    3.696247    3.338156    4.965214    4.706596    5.374452
 O   _2:    2.642971    3.338156    3.696247    4.706596    4.965214    5.374452
 H   _1:    2.143694    1.081451    3.407316    2.166922    3.881063    3.407904
 H   _2:    2.143694    3.407316    1.081451    3.881063    2.166922    3.407904
 H   _1:    3.376890    2.145360    3.883675    1.083722    3.403140    2.154719
 H   _2:    3.376890    3.883675    2.145360    3.403140    1.083722    2.154719
 H     :    3.841819    3.396703    3.396703    2.151500    2.151500    1.084247

            N           O   _1      O   _2      H   _1      H   _2      H   _1
            ------      ------      ------      ------      ------      ------
 N     :    0.000000
 O   _1:    1.224763    0.000000
 O   _2:    1.224763    1.033161    0.000000
 H   _1:    2.665523    3.787272    3.149493    0.000000
 H   _2:    2.665523    3.149493    3.787272    4.282121    0.000000
 H   _1:    4.616894    5.840504    5.447052    2.498398    4.964773    0.000000
 H   _2:    4.616894    5.447052    5.840504    4.964773    2.498398    4.298566
 H     :    5.323325    6.454520    6.454520    4.305675    4.305675    2.479943

            H   _2      H     
            ------      ------
 H   _2:    0.000000
 H     :    2.479943    0.000000


  Max    interatomic separation is    6.4545 Angstrom (   12.1973 Bohr)
  between atoms   14 and    8, "H     " and "O   _1".

  Min HX interatomic separation is    1.0815 Angstrom (    2.0436 Bohr)

  Min YX interatomic separation is    1.0332 Angstrom (    1.9524 Bohr)


  Bond distances (Angstrom):
  --------------------------

                  atom 1     atom 2       distance
                  ------     ------       --------
  bond distance:  C   _1     C            1.391719
  bond distance:  C   _2     C            1.391719
  bond distance:  C   _1     C   _1       1.391780
  bond distance:  C   _2     C   _2       1.391780
  bond distance:  C          C   _1       1.395542
  bond distance:  C          C   _2       1.395542
  bond distance:  N          C            1.481505
  bond distance:  O   _1     N            1.224763
  bond distance:  O   _2     N            1.224763
  bond distance:  O   _2     O   _1       1.033161
  bond distance:  H   _1     C   _1       1.081451
  bond distance:  H   _2     C   _2       1.081451
  bond distance:  H   _1     C   _1       1.083722
  bond distance:  H   _2     C   _2       1.083722
  bond distance:  H          C            1.084247


  Bond angles (degrees):
  ----------------------

                  atom 1     atom 2     atom 3         angle
                  ------     ------     ------         -----
  bond angle:     C   _1     C          C   _2       122.311
  bond angle:     C   _1     C          N            118.844
  bond angle:     C   _2     C          N            118.844
  bond angle:     C          C   _1     C   _1       118.493
  bond angle:     C          C   _1     H   _1       119.647
  bond angle:     C   _1     C   _1     H   _1       121.860
  bond angle:     C          C   _2     C   _2       118.493
  bond angle:     C          C   _2     H   _2       119.647
  bond angle:     C   _2     C   _2     H   _2       121.860
  bond angle:     C   _1     C   _1     C            120.192
  bond angle:     C   _1     C   _1     H   _1       119.623
  bond angle:     C          C   _1     H   _1       120.185
  bond angle:     C   _2     C   _2     C            120.192
  bond angle:     C   _2     C   _2     H   _2       119.623
  bond angle:     C          C   _2     H   _2       120.185
  bond angle:     C   _1     C          C   _2       120.319
  bond angle:     C   _1     C          H            119.841
  bond angle:     C   _2     C          H            119.841
  bond angle:     C          N          O   _1       155.053
  bond angle:     C          N          O   _2       155.053
  bond angle:     O   _1     N          O   _2        49.894
  bond angle:     N          O   _1     O   _2        65.053
  bond angle:     N          O   _2     O   _1        65.053




 Principal moments of inertia (u*A**2) and principal axes
 --------------------------------------------------------

   IA      97.922011          0.000000    0.000000    1.000000
   IB     478.300482          1.000000    0.000000    0.000000
   IC     576.222493          0.000000    1.000000    0.000000


 Rotational constants
 --------------------

@    The molecule is planar.

               A                   B                   C

           5161.0358           1056.6140            877.0553 MHz
            0.172154            0.035245            0.029255 cm-1


@  Nuclear repulsion energy :  418.587416897267 Hartree


  Symmetry Orbitals
  -----------------

  Number of orbitals in each symmetry:         115   91   48   34


  Symmetry  A1 ( 1)

    1     C        1s         1
    2     C        1s         2
    3     C        1s         3
    4     C        1s         4
    5     C        1s         5
    6     C        2pz        8
    7     C        2pz       11
    8     C        2pz       14
    9     C        2pz       17
   10     C        3d0       20
   11     C        3d2+      22
   12     C        3d0       25
   13     C        3d2+      27
   14     C        1s        28 +   29
   15     C        1s        30 +   31
   16     C        1s        32 +   33
   17     C        1s        34 +   35
   18     C        1s        36 +   37
   19     C        2px       38 -   39
   20     C        2pz       42 +   43
   21     C        2px       44 -   45
   22     C        2pz       48 +   49
   23     C        2px       50 -   51
   24     C        2pz       54 +   55
   25     C        2px       56 -   57
   26     C        2pz       60 +   61
   27     C        3d0       66 +   67
   28     C        3d1+      68 -   69
   29     C        3d2+      70 +   71
   30     C        3d0       76 +   77
   31     C        3d1+      78 -   79
   32     C        3d2+      80 +   81
   33     C        1s        82 +   83
   34     C        1s        84 +   85
   35     C        1s        86 +   87
   36     C        1s        88 +   89
   37     C        1s        90 +   91
   38     C        2px       92 -   93
   39     C        2pz       96 +   97
   40     C        2px       98 -   99
   41     C        2pz      102 +  103
   42     C        2px      104 -  105
   43     C        2pz      108 +  109
   44     C        2px      110 -  111
   45     C        2pz      114 +  115
   46     C        3d0      120 +  121
   47     C        3d1+     122 -  123
   48     C        3d2+     124 +  125
   49     C        3d0      130 +  131
   50     C        3d1+     132 -  133
   51     C        3d2+     134 +  135
   52     C        1s       136
   53     C        1s       137
   54     C        1s       138
   55     C        1s       139
   56     C        1s       140
   57     C        2pz      143
   58     C        2pz      146
   59     C        2pz      149
   60     C        2pz      152
   61     C        3d0      155
   62     C        3d2+     157
   63     C        3d0      160
   64     C        3d2+     162
   65     N        1s       163
   66     N        1s       164
   67     N        1s       165
   68     N        1s       166
   69     N        1s       167
   70     N        2pz      170
   71     N        2pz      173
   72     N        2pz      176
   73     N        2pz      179
   74     N        3d0      182
   75     N        3d2+     184
   76     N        3d0      187
   77     N        3d2+     189
   78     O        1s       190 +  191
   79     O        1s       192 +  193
   80     O        1s       194 +  195
   81     O        1s       196 +  197
   82     O        1s       198 +  199
   83     O        2px      200 -  201
   84     O        2pz      204 +  205
   85     O        2px      206 -  207
   86     O        2pz      210 +  211
   87     O        2px      212 -  213
   88     O        2pz      216 +  217
   89     O        2px      218 -  219
   90     O        2pz      222 +  223
   91     O        3d0      228 +  229
   92     O        3d1+     230 -  231
   93     O        3d2+     232 +  233
   94     O        3d0      238 +  239
   95     O        3d1+     240 -  241
   96     O        3d2+     242 +  243
   97     H        1s       244 +  245
   98     H        1s       246 +  247
   99     H        1s       248 +  249
  100     H        2px      250 -  251
  101     H        2pz      254 +  255
  102     H        2px      256 -  257
  103     H        2pz      260 +  261
  104     H        1s       262 +  263
  105     H        1s       264 +  265
  106     H        1s       266 +  267
  107     H        2px      268 -  269
  108     H        2pz      272 +  273
  109     H        2px      274 -  275
  110     H        2pz      278 +  279
  111     H        1s       280
  112     H        1s       281
  113     H        1s       282
  114     H        2pz      285
  115     H        2pz      288


  Symmetry  B1 ( 2)

  116     C        2px        6
  117     C        2px        9
  118     C        2px       12
  119     C        2px       15
  120     C        3d1+      21
  121     C        3d1+      26
  122     C        1s        28 -   29
  123     C        1s        30 -   31
  124     C        1s        32 -   33
  125     C        1s        34 -   35
  126     C        1s        36 -   37
  127     C        2px       38 +   39
  128     C        2pz       42 -   43
  129     C        2px       44 +   45
  130     C        2pz       48 -   49
  131     C        2px       50 +   51
  132     C        2pz       54 -   55
  133     C        2px       56 +   57
  134     C        2pz       60 -   61
  135     C        3d0       66 -   67
  136     C        3d1+      68 +   69
  137     C        3d2+      70 -   71
  138     C        3d0       76 -   77
  139     C        3d1+      78 +   79
  140     C        3d2+      80 -   81
  141     C        1s        82 -   83
  142     C        1s        84 -   85
  143     C        1s        86 -   87
  144     C        1s        88 -   89
  145     C        1s        90 -   91
  146     C        2px       92 +   93
  147     C        2pz       96 -   97
  148     C        2px       98 +   99
  149     C        2pz      102 -  103
  150     C        2px      104 +  105
  151     C        2pz      108 -  109
  152     C        2px      110 +  111
  153     C        2pz      114 -  115
  154     C        3d0      120 -  121
  155     C        3d1+     122 +  123
  156     C        3d2+     124 -  125
  157     C        3d0      130 -  131
  158     C        3d1+     132 +  133
  159     C        3d2+     134 -  135
  160     C        2px      141
  161     C        2px      144
  162     C        2px      147
  163     C        2px      150
  164     C        3d1+     156
  165     C        3d1+     161
  166     N        2px      168
  167     N        2px      171
  168     N        2px      174
  169     N        2px      177
  170     N        3d1+     183
  171     N        3d1+     188
  172     O        1s       190 -  191
  173     O        1s       192 -  193
  174     O        1s       194 -  195
  175     O        1s       196 -  197
  176     O        1s       198 -  199
  177     O        2px      200 +  201
  178     O        2pz      204 -  205
  179     O        2px      206 +  207
  180     O        2pz      210 -  211
  181     O        2px      212 +  213
  182     O        2pz      216 -  217
  183     O        2px      218 +  219
  184     O        2pz      222 -  223
  185     O        3d0      228 -  229
  186     O        3d1+     230 +  231
  187     O        3d2+     232 -  233
  188     O        3d0      238 -  239
  189     O        3d1+     240 +  241
  190     O        3d2+     242 -  243
  191     H        1s       244 -  245
  192     H        1s       246 -  247
  193     H        1s       248 -  249
  194     H        2px      250 +  251
  195     H        2pz      254 -  255
  196     H        2px      256 +  257
  197     H        2pz      260 -  261
  198     H        1s       262 -  263
  199     H        1s       264 -  265
  200     H        1s       266 -  267
  201     H        2px      268 +  269
  202     H        2pz      272 -  273
  203     H        2px      274 +  275
  204     H        2pz      278 -  279
  205     H        2px      283
  206     H        2px      286


  Symmetry  B2 ( 3)

  207     C        2py        7
  208     C        2py       10
  209     C        2py       13
  210     C        2py       16
  211     C        3d1-      19
  212     C        3d1-      24
  213     C        2py       40 +   41
  214     C        2py       46 +   47
  215     C        2py       52 +   53
  216     C        2py       58 +   59
  217     C        3d2-      62 -   63
  218     C        3d1-      64 +   65
  219     C        3d2-      72 -   73
  220     C        3d1-      74 +   75
  221     C        2py       94 +   95
  222     C        2py      100 +  101
  223     C        2py      106 +  107
  224     C        2py      112 +  113
  225     C        3d2-     116 -  117
  226     C        3d1-     118 +  119
  227     C        3d2-     126 -  127
  228     C        3d1-     128 +  129
  229     C        2py      142
  230     C        2py      145
  231     C        2py      148
  232     C        2py      151
  233     C        3d1-     154
  234     C        3d1-     159
  235     N        2py      169
  236     N        2py      172
  237     N        2py      175
  238     N        2py      178
  239     N        3d1-     181
  240     N        3d1-     186
  241     O        2py      202 +  203
  242     O        2py      208 +  209
  243     O        2py      214 +  215
  244     O        2py      220 +  221
  245     O        3d2-     224 -  225
  246     O        3d1-     226 +  227
  247     O        3d2-     234 -  235
  248     O        3d1-     236 +  237
  249     H        2py      252 +  253
  250     H        2py      258 +  259
  251     H        2py      270 +  271
  252     H        2py      276 +  277
  253     H        2py      284
  254     H        2py      287


  Symmetry  A2 ( 4)

  255     C        3d2-      18
  256     C        3d2-      23
  257     C        2py       40 -   41
  258     C        2py       46 -   47
  259     C        2py       52 -   53
  260     C        2py       58 -   59
  261     C        3d2-      62 +   63
  262     C        3d1-      64 -   65
  263     C        3d2-      72 +   73
  264     C        3d1-      74 -   75
  265     C        2py       94 -   95
  266     C        2py      100 -  101
  267     C        2py      106 -  107
  268     C        2py      112 -  113
  269     C        3d2-     116 +  117
  270     C        3d1-     118 -  119
  271     C        3d2-     126 +  127
  272     C        3d1-     128 -  129
  273     C        3d2-     153
  274     C        3d2-     158
  275     N        3d2-     180
  276     N        3d2-     185
  277     O        2py      202 -  203
  278     O        2py      208 -  209
  279     O        2py      214 -  215
  280     O        2py      220 -  221
  281     O        3d2-     224 +  225
  282     O        3d1-     226 -  227
  283     O        3d2-     234 +  235
  284     O        3d1-     236 -  237
  285     H        2py      252 -  253
  286     H        2py      258 -  259
  287     H        2py      270 -  271
  288     H        2py      276 -  277

  Symmetries of electric field:  B1 (2)  B2 (3)  A1 (1)

  Symmetries of magnetic field:  B2 (3)  B1 (2)  A2 (4)


                     .---------------------------------------.
                     | Starting in Integral Section (HERMIT) |
                     `---------------------------------------'



 ***************************************************************************************
 ****************** Output from **INTEGRALS input processing (HERMIT) ******************
 ***************************************************************************************


 - Using defaults, no **INTEGRALS input found

 Default print level:        1

 Calculation of one-electron Hamiltonian integrals.

 Center of mass  (bohr):      0.000000000000      0.000000000000     -0.117703172414
 Operator center (bohr):      0.000000000000      0.000000000000      0.000000000000
 Gauge origin    (bohr):      0.000000000000      0.000000000000      0.000000000000
 Dipole origin   (bohr):      0.000000000000      0.000000000000      0.000000000000


     ************************************************************************
     ************************** Output from HERINT **************************
     ************************************************************************



                      Nuclear contribution to dipole moments
                      --------------------------------------

                 au               Debye          C m (/(10**-30)

      z    -16.02899616       -40.74164179      -135.89948882


  Time used in GABGEN     is       0.11 seconds
  Total CPU  time used in HERMIT:   0.41 seconds
  Total wall time used in HERMIT:   0.41 seconds


                        .----------------------------------.
                        | End of Integral Section (HERMIT) |
                        `----------------------------------'



                   .--------------------------------------------.
                   | Starting in Wave Function Section (SIRIUS) |
                   `--------------------------------------------'


 *** Output from Huckel module :

     Using EWMO model:          F
     Using EHT  model:          T
     Number of Huckel orbitals each symmetry:   24   17    6    3

 Huckel EHT eigenvalues for symmetry :  1
          -20.741281     -15.706231     -11.414839     -11.394398     -11.376674
          -11.362577      -1.994265      -1.578830      -1.279594      -1.023761
           -0.836760      -0.745634      -0.637209      -0.595893      -0.544813
           -0.439740      -0.314175      -0.237667      -0.219902      -0.213404
           -0.205728      -0.178502      -0.166811      -0.160386

 Huckel EHT eigenvalues for symmetry :  2
          -20.711563     -11.396450     -11.377841      -1.235283      -1.121365
           -0.881241      -0.569805      -0.533512      -0.479505      -0.416426
           -0.336290      -0.310587      -0.213869      -0.202820      -0.176271
           -0.165474      -0.163324

 Huckel EHT eigenvalues for symmetry :  3
           -0.860400      -0.702053      -0.489608      -0.394519      -0.281623
           -0.236533

 Huckel EHT eigenvalues for symmetry :  4
           -0.468657      -0.460148      -0.288960

 **********************************************************************
 *SIRIUS* a direct, restricted step, second order MCSCF program       *
 **********************************************************************

 
     Date and time (Linux)  : Mon Dec 16 07:36:55 2019
     Host name              : Lab2-333-NPs                            

 Title lines from ".mol" input file:
      nitrobenzene                                                           
      Generated by the Dalton Input File Plugin for Avogadro                 

 Print level on unit LUPRI =   2 is   0
 Print level on unit LUW4  =   2 is   5

@    MC-SCF optimization.

@    Multi-configurational response calculation.
@              Type: complete active space calculation (CAS).

@    This is a combination run starting with
@              a restricted, closed shell Hartree-Fock calculation
@              an MP2 calculation

 Fock matrices are calculated directly without use of integrals on disk.

 Initial molecular orbitals are obtained according to
 ".MOSTART EHT   " input option

     Wave function specification
     ============================
@    Wave function type        --- MC-SCF ---
@    Number of closed shell electrons          54
@    Number of electrons in active shells      10
@    Total charge of the molecule               0

@    Spin multiplicity and 2 M_S                3         2
@    Total number of symmetries                 4 (point group: C2v)
@    Reference state symmetry                   1 (irrep name : A1 )

     Orbital specifications
     ======================
@    Abelian symmetry species          All |    1    2    3    4
@                                          |  A1   B1   B2   A2 
                                       --- |  ---  ---  ---  ---
@    Inactive orbitals                  27 |   15   10    2    0
@    Active orbitals                     7 |    1    1    2    3
@    Secondary orbitals                254 |   99   80   44   31
@    Total number of orbitals          288 |  115   91   48   34
@    Number of basis functions         288 |  115   91   48   34

      ** Automatic occupation of RHF orbitals **

      -- Initial occupation of symmetries is determined from extended Huckel guess.           
      -- Initial occupation of symmetries is :
@    Occupied SCF orbitals              32 |   16   10    4    2

     Optimization information
     ========================
@    Number of determinants                  56
@    Number of orbital rotations           2762
     ------------------------------------------
@    Total number of variables             2818

     Maximum number of macro iterations      25
     Maximum number of micro iterations     600
     Threshold for MCSCF gradient      1.00D-05
     Number of initial trial vectors          1
     Number of initial CI iterations          3
     Number of simultaneous trial vectors     1

@    This calculation converges to the lowest state for the specified symmetry and spin species.

     Maximum number of NEO/NR iterations  24

    INFORMATION: Switched to "new" integral transformation (from 1988 ;-) )
    because more than 255 basis functions.


 ***********************************************
 ***** DIIS acceleration of SCF iterations *****
 ***********************************************

 C1-DIIS algorithm; max error vectors =    8

 Automatic occupation of symmetries with  64 electrons.

 Iter     Total energy    Error norm  Delta(E)    SCF occupation
 -----------------------------------------------------------------------------
   1  Screening settings (-IFTHRS, JTDIIS, DIFDEN, times)   -8    1    T  2.81D+01  2.81D+01
@  1  -431.990713289       6.44D+00  -4.32D+02    16  10   4   2
      Virial theorem: -V/T =      1.997285
@    MULPOP   C       0.50; C   _1  0.09; C   _2  0.09; C   _1  0.26; C   _2  0.26; C       0.19; N       0.00; O   _1 -0.24; O   _2 -0.24; H   _1 -0.19; 
@             H   _2 -0.19; H   _1 -0.18; H   _2 -0.18; H      -0.18; 
   1  Level shift: doubly occupied orbital energies shifted by -2.00D-01
 -----------------------------------------------------------------------------
   2  Screening settings (-IFTHRS, JTDIIS, DIFDEN, times)   -8    2    T  2.81D+01  2.81D+01
@  2  -433.647398707       1.43D+00  -1.66D+00    16  10   4   2
      Virial theorem: -V/T =      1.991566
@    MULPOP   C       1.64; C   _1  0.04; C   _2  0.04; C   _1  0.42; C   _2  0.42; C       0.38; N       0.25; O   _1 -0.51; O   _2 -0.51; H   _1 -0.45; 
@             H   _2 -0.45; H   _1 -0.41; H   _2 -0.41; H      -0.43; 
   2  Level shift: doubly occupied orbital energies shifted by -5.00D-02
 -----------------------------------------------------------------------------
   3  Screening settings (-IFTHRS, JTDIIS, DIFDEN, times)   -8    3    T  2.80D+01  2.80D+01
@  3  -433.762555478       4.12D-01  -1.15D-01    16  10   4   2
      Virial theorem: -V/T =      1.997409
@    MULPOP   C       2.10; C   _1 -0.07; C   _2 -0.07; C   _1  0.57; C   _2  0.57; C       0.32; N       0.15; O   _1 -0.59; O   _2 -0.59; H   _1 -0.51; 
@             H   _2 -0.51; H   _1 -0.46; H   _2 -0.46; H      -0.47; 
   3  Level shift: doubly occupied orbital energies shifted by -2.50D-02
 -----------------------------------------------------------------------------
   4  Screening settings (-IFTHRS, JTDIIS, DIFDEN, times)   -8    4    T  2.78D+01  2.78D+01
@  4  -433.774557169       1.35D-01  -1.20D-02    16  10   4   2
      Virial theorem: -V/T =      1.996253
@    MULPOP   C       2.13; C   _1 -0.10; C   _2 -0.10; C   _1  0.58; C   _2  0.58; C       0.32; N       0.07; O   _1 -0.57; O   _2 -0.57; H   _1 -0.49; 
@             H   _2 -0.49; H   _1 -0.45; H   _2 -0.45; H      -0.46; 
   4  Level shift: doubly occupied orbital energies shifted by -1.25D-02
 -----------------------------------------------------------------------------
   5  Screening settings (-IFTHRS, JTDIIS, DIFDEN, times)  -10    5    F  2.82D+01  2.83D+01
@  5  -433.775716203       5.24D-02  -1.16D-03    16  10   4   2
      Virial theorem: -V/T =      1.996055
@    MULPOP   C       2.16; C   _1 -0.11; C   _2 -0.11; C   _1  0.58; C   _2  0.58; C       0.30; N       0.07; O   _1 -0.58; O   _2 -0.58; H   _1 -0.49; 
@             H   _2 -0.49; H   _1 -0.44; H   _2 -0.44; H      -0.46; 
 -----------------------------------------------------------------------------
   6  Screening settings (-IFTHRS, JTDIIS, DIFDEN, times)  -10    6    T  2.81D+01  2.81D+01
@  6  -433.775896828       9.95D-03  -1.81D-04    16  10   4   2
      Virial theorem: -V/T =      1.996178
@    MULPOP   C       2.16; C   _1 -0.11; C   _2 -0.11; C   _1  0.58; C   _2  0.58; C       0.31; N       0.07; O   _1 -0.58; O   _2 -0.58; H   _1 -0.49; 
@             H   _2 -0.49; H   _1 -0.44; H   _2 -0.44; H      -0.45; 
 -----------------------------------------------------------------------------
   7  Screening settings (-IFTHRS, JTDIIS, DIFDEN, times)  -13    7    F  2.86D+01  2.87D+01
@  7  -433.775907215       2.26D-03  -1.04D-05    16  10   4   2
      Virial theorem: -V/T =      1.996162
@    MULPOP   C       2.16; C   _1 -0.12; C   _2 -0.12; C   _1  0.58; C   _2  0.58; C       0.31; N       0.06; O   _1 -0.58; O   _2 -0.58; H   _1 -0.49; 
@             H   _2 -0.49; H   _1 -0.44; H   _2 -0.44; H      -0.45; 
 -----------------------------------------------------------------------------
   8  Screening settings (-IFTHRS, JTDIIS, DIFDEN, times)  -13    8    T  2.83D+01  2.83D+01
@  8  -433.775907984       1.07D-03  -7.68D-07    16  10   4   2
      Virial theorem: -V/T =      1.996158
@    MULPOP   C       2.16; C   _1 -0.12; C   _2 -0.12; C   _1  0.58; C   _2  0.58; C       0.31; N       0.06; O   _1 -0.58; O   _2 -0.58; H   _1 -0.49; 
@             H   _2 -0.49; H   _1 -0.44; H   _2 -0.44; H      -0.45; 
 -----------------------------------------------------------------------------
   9  Screening settings (-IFTHRS, JTDIIS, DIFDEN, times)  -13    9    T  2.83D+01  2.83D+01
@  9  -433.775908146       3.68D-04  -1.62D-07    16  10   4   2
      Virial theorem: -V/T =      1.996160
@    MULPOP   C       2.16; C   _1 -0.12; C   _2 -0.12; C   _1  0.58; C   _2  0.58; C       0.31; N       0.06; O   _1 -0.58; O   _2 -0.58; H   _1 -0.49; 
@             H   _2 -0.49; H   _1 -0.44; H   _2 -0.44; H      -0.45; 
 -----------------------------------------------------------------------------
  10  Screening settings (-IFTHRS, JTDIIS, DIFDEN, times)  -13   10    T  2.82D+01  2.82D+01
@ 10  -433.775908192       1.46D-04  -4.61D-08    16  10   4   2
      Virial theorem: -V/T =      1.996160
@    MULPOP   C       2.16; C   _1 -0.11; C   _2 -0.11; C   _1  0.58; C   _2  0.58; C       0.31; N       0.06; O   _1 -0.58; O   _2 -0.58; H   _1 -0.49; 
@             H   _2 -0.49; H   _1 -0.44; H   _2 -0.44; H      -0.45; 
 -----------------------------------------------------------------------------
  11  Screening settings (-IFTHRS, JTDIIS, DIFDEN, times)  -13   11    T  2.81D+01  2.81D+01
@ 11  -433.775908201       5.87D-05  -9.00D-09    16  10   4   2
      Virial theorem: -V/T =      1.996160
@    MULPOP   C       2.16; C   _1 -0.11; C   _2 -0.11; C   _1  0.58; C   _2  0.58; C       0.31; N       0.06; O   _1 -0.58; O   _2 -0.58; H   _1 -0.49; 
@             H   _2 -0.49; H   _1 -0.44; H   _2 -0.44; H      -0.45; 
 -----------------------------------------------------------------------------
  12  Screening settings (-IFTHRS, JTDIIS, DIFDEN, times)  -13   12    T  2.81D+01  2.82D+01
@ 12  -433.775908202       2.45D-05  -1.07D-09    16  10   4   2
      Virial theorem: -V/T =      1.996160
@    MULPOP   C       2.16; C   _1 -0.11; C   _2 -0.11; C   _1  0.58; C   _2  0.58; C       0.31; N       0.06; O   _1 -0.58; O   _2 -0.58; H   _1 -0.49; 
@             H   _2 -0.49; H   _1 -0.44; H   _2 -0.44; H      -0.45; 
 -----------------------------------------------------------------------------
  13  Screening settings (-IFTHRS, JTDIIS, DIFDEN, times)  -13   13    T  2.80D+01  2.80D+01
@ 13  -433.775908202       6.28D-06  -1.28D-10    16  10   4   2
      Virial theorem: -V/T =      1.996160
@    MULPOP   C       2.16; C   _1 -0.11; C   _2 -0.11; C   _1  0.58; C   _2  0.58; C       0.31; N       0.06; O   _1 -0.58; O   _2 -0.58; H   _1 -0.49; 
@             H   _2 -0.49; H   _1 -0.44; H   _2 -0.44; H      -0.45; 
 -----------------------------------------------------------------------------
  14  Screening settings (-IFTHRS, JTDIIS, DIFDEN, times)  -13   14    T  2.79D+01  2.79D+01
@ 14  -433.775908202       2.52D-06  -9.09D-13    16  10   4   2
      Virial theorem: -V/T =      1.996160
@    MULPOP   C       2.16; C   _1 -0.11; C   _2 -0.11; C   _1  0.58; C   _2  0.58; C       0.31; N       0.06; O   _1 -0.58; O   _2 -0.58; H   _1 -0.49; 
@             H   _2 -0.49; H   _1 -0.44; H   _2 -0.44; H      -0.45; 
 -----------------------------------------------------------------------------
  15  Screening settings (-IFTHRS, JTDIIS, DIFDEN, times)  -13   15    T  2.79D+01  2.79D+01
@ 15  -433.775908202       8.99D-07  -1.48D-11    16  10   4   2

@ *** DIIS converged in  15 iterations !
@     Converged SCF energy, gradient:   -433.775908201786    8.99D-07
    - total time used in SIRFCK :              0.00 seconds

 --- Writing SIRIFC interface file

 CPU and wall time for SCF :     422.406     422.442


 ----- Output from SIRIUS MP2 module -----

 Reference: H.J.Aa.Jensen, P.Jorgensen, H.Agren, and J.Olsen,
            J. Chem. Phys. 88, 3834 (1988); 89, 5354 (1988)

 Checking that the closed shell orbitals are canonical Hartree-Fock orbitals

    Number of electrons  :   64
    Closed shell orbitals:   16   10    4    2

 Generating Fock matrix

 Hartree-Fock electronic energy:        -852.363325099045
 Hartree-Fock total      energy:        -433.775908201778

 Hartree-Fock orbital energies, symmetry 1 ( A1 ),   16 occupied SCF orbitals

       -20.68412321   -15.66193161   -11.35343330   -11.26445153   -11.25856421
       -11.24729832    -2.03713084    -1.22317272    -1.15780515    -1.04062827
        -0.88948661    -0.80269444    -0.75390084    -0.69179018    -0.63093580
        -0.53292150     0.03308155     0.04559549     0.06349476     0.10843588
         0.12396807     0.14122935     0.15424385     0.15739834     0.16990154
         0.18284690     0.20513617     0.24674966     0.26721636     0.28802606
         0.31988905     0.33330551     0.34366267     0.35902553     0.36378897
         0.39185413     0.40950453     0.42343758     0.45806429     0.47431189
         0.51082586     0.56993762     0.57563722     0.60979387     0.62784336
         0.66767089     0.67580149     0.68455326     0.72063413     0.76077141
         0.78934236     0.83848897     0.89973264     0.90255675     0.95930714
         0.98869812     1.01811331     1.06725321     1.07482001     1.08980925
         1.20875312     1.28996276     1.34060772     1.41698338     1.50032371
         1.53986909     1.55504735     1.59514462     1.60891405     1.63408876
         1.69835824     1.73535996     1.76830555     1.79125784     1.87280790
         1.95962517     1.99198297     2.03405418     2.03894935     2.20587918
         2.23684961     2.30248445     2.36248438     2.40955171     2.44008407
         2.52263540     2.56654312     2.69489519     2.75235078     2.83994766
         2.91488809     2.97723083     3.05505271     3.16433604     3.18179627
         3.31660768     3.54315709     3.88545023     4.07121468     4.17453347
        19.81883329    20.32471291    20.47039143    20.64000971    23.37015433
        23.43755682    23.48431142    23.80823499    23.90979691    24.12913566
        27.37093636    31.76386153    35.76333442    39.57682478    40.04612225

 Hartree-Fock orbital energies, symmetry 2 ( B1 ),   10 occupied SCF orbitals

       -20.68226507   -11.26442632   -11.25857780    -1.13904280    -1.03969240
        -0.85381874    -0.65562439    -0.61048282    -0.56447049    -0.51658522
         0.03893999     0.05744875     0.13329144     0.13739495     0.15235622
         0.16138446     0.18101093     0.20704216     0.25857144     0.29601974
         0.30486637     0.31759705     0.34896231     0.36434117     0.37836582
         0.39973215     0.41472062     0.43330632     0.51309596     0.55882806
         0.58081609     0.62965117     0.65624219     0.67952384     0.69779778
         0.74674049     0.77239525     0.81064670     0.83657095     0.85757718
         0.88993718     0.92271875     1.03391162     1.16876818     1.25089131
         1.31070409     1.35963670     1.39632480     1.46013805     1.50715421
         1.53138592     1.60383382     1.63512885     1.66039774     1.72210420
         1.76816185     1.78769859     1.82447301     1.87107384     1.93946886
         2.05565361     2.13858600     2.17526321     2.31856320     2.33376315
         2.38645577     2.45213549     2.54434605     2.68037501     2.73499539
         2.91016587     2.94508695     3.17032394     3.31913063     3.37140844
         3.43182597     4.01823265     4.47120188     4.81380602    20.29682390
        20.48028388    22.87709692    23.33110946    23.39494221    23.96278104
        24.13253301    24.31913727    31.33311083    36.00700588    40.01676293
        41.32856301

 Hartree-Fock orbital energies, symmetry 3 ( B2 ),    4 occupied SCF orbitals

        -0.93504831    -0.54467385    -0.43680133    -0.30617881     0.10387529
         0.11994515     0.13900175     0.18509520     0.19014218     0.23140937
         0.29884181     0.33992917     0.39090627     0.46837226     0.54706348
         0.59969203     0.67277319     0.71671433     0.79522885     0.87755798
         0.91505861     0.93112351     0.95761323     1.04800496     1.08998187
         1.15014969     1.18417682     1.47960361     1.52660175     1.62909544
         1.68258345     1.71716161     1.85286202     1.94433215     2.09727715
         2.12954947     2.18381329     2.31287102     2.56621480     2.69208115
         3.09392818     3.74955429    22.56529275    22.71363603    22.84250249
        23.04114556    30.76330842    39.43917814

 Hartree-Fock orbital energies, symmetry 4 ( A2 ),    2 occupied SCF orbitals

        -0.39102642    -0.35857212     0.09419470     0.13725660     0.19120036
         0.28433098     0.41890027     0.49523519     0.55161161     0.65969463
         0.74506998     0.88963415     0.90978538     0.94788078     1.04073468
         1.08162484     1.23029995     1.31627439     1.44725381     1.62209442
         1.69184778     1.70265227     1.85169293     1.88516322     2.11471827
         2.18921960     2.36128979     2.54382740     2.63088180     3.86357013
         4.33299069    22.70900245    22.87790796    39.46043892

    E(LUMO) :     0.03308155   (in symmetry 1)
  - E(HOMO) :    -0.30617881   (in symmetry 3)
  --------------------------
    gap     :     0.33926035

---> (Re)generating AOTWOINT


     ************************************************************************
     ************************** Output from HERINT **************************
     ************************************************************************


 Threshold for neglecting two-electron integrals:  1.00D-12
 HERMIT - Number of two-electron integrals written:   198383314 ( 22.9% )
 HERMIT - Megabytes written:                           3028.352

  Time used in TWOINT     is      39.36 seconds

 2-el. integral transformation level 5: Total CPU and WALL times (sec)     417.172     418.933

 MP2 move   0.897822 electrons to unoccupied HF orbitals


@   Hartree-Fock total energy   :          -433.7759082018
@   + MP2 contribution          :            -1.6600998521
@   = MP2 second order energy   :          -435.4360080539

 Natural orbital occupation numbers, symmetry 1 (irrep A1 )
 Sum =    31.99011643; RHF =    32.00000000; Difference =    -0.00988357

         1.99928309     1.99905890     1.99876113     1.99875776     1.99875209
         1.99874856     1.98975608     1.98421414     1.97980339     1.97441086
         1.96985596     1.96792633     1.96631656     1.96275294     1.95588149
         1.94899964     0.03794904     0.02565721     0.02424600     0.02213544
         0.01898152     0.01726067     0.01648950     0.01356558     0.01322151
         0.01228530     0.00997730     0.00890388     0.00835455     0.00768122
         0.00670678     0.00637348     0.00469757     0.00430233     0.00341666
         0.00299127     0.00288064     0.00257837     0.00236855     0.00205696
         0.00169516     0.00161154     0.00143634     0.00128412     0.00126164
         0.00117510     0.00106666     0.00095583     0.00073546     0.00065624
         0.00061776     0.00051030     0.00048647     0.00044566     0.00042684
         0.00041540     0.00039864     0.00037426     0.00035559     0.00035114
         0.00033506     0.00032496     0.00031432     0.00030402     0.00028093
         0.00026258     0.00023318     0.00022434     0.00022064     0.00019767
         0.00019375     0.00018346     0.00017702     0.00017263     0.00016753
         0.00016026     0.00015558     0.00014359     0.00013850     0.00013561
         0.00013257     0.00012223     0.00011787     0.00010500     0.00010112
         0.00009251     0.00007813     0.00006536     0.00005862     0.00005164
         0.00004495     0.00003618     0.00003342     0.00002529     0.00001710
         0.00001456     0.00001363     0.00001250     0.00001067     0.00000957
         0.00000828     0.00000743     0.00000657     0.00000358     0.00000226
         0.00000125     0.00000086     0.00000072     0.00000046     0.00000027
         0.00000016     0.00000007    -0.00000008    -0.00000073    -0.00000363

 Natural orbital occupation numbers, symmetry 2 (irrep B1 )
 Sum =    19.99608077; RHF =    20.00000000; Difference =    -0.00391923

         1.99927600     1.99875753     1.99874982     1.98174262     1.98000529
         1.97257895     1.96086845     1.95557413     1.95428207     1.94547030
         0.04522508     0.02508419     0.02387864     0.02132205     0.01700452
         0.01640262     0.01574011     0.01194383     0.00967282     0.00911764
         0.00818145     0.00561988     0.00532880     0.00353427     0.00320995
         0.00306187     0.00250471     0.00216964     0.00203113     0.00164251
         0.00161504     0.00140827     0.00133177     0.00125133     0.00103772
         0.00099401     0.00068187     0.00064291     0.00054399     0.00045705
         0.00042552     0.00041463     0.00036881     0.00033830     0.00032821
         0.00029954     0.00029242     0.00026712     0.00025278     0.00022160
         0.00020876     0.00019928     0.00018821     0.00018304     0.00018188
         0.00017191     0.00016754     0.00016280     0.00015098     0.00014197
         0.00013575     0.00013091     0.00012350     0.00011938     0.00010262
         0.00010165     0.00009286     0.00007984     0.00005261     0.00004583
         0.00003184     0.00003098     0.00002367     0.00001845     0.00001580
         0.00001379     0.00001212     0.00001158     0.00000941     0.00000892
         0.00000443     0.00000293     0.00000135     0.00000100     0.00000063
         0.00000036     0.00000027     0.00000012    -0.00000005    -0.00000070
        -0.00000118

 Natural orbital occupation numbers, symmetry 3 (irrep B2 )
 Sum =     7.99206168; RHF =     8.00000000; Difference =    -0.00793832

         1.97868670     1.95904523     1.94528340     1.90746257     0.07110714
         0.03170027     0.01486035     0.01407015     0.01078012     0.01000295
         0.00894339     0.00731614     0.00712159     0.00533384     0.00403558
         0.00333915     0.00236300     0.00162179     0.00146756     0.00091822
         0.00089470     0.00070491     0.00055457     0.00050372     0.00047988
         0.00045129     0.00039249     0.00034655     0.00030273     0.00024590
         0.00021398     0.00020178     0.00019221     0.00018239     0.00017267
         0.00013755     0.00012721     0.00011734     0.00009871     0.00009258
         0.00007555     0.00005551     0.00002669     0.00002355     0.00001190
         0.00000714     0.00000175    -0.00001270

 Natural orbital occupation numbers, symmetry 4 (irrep A2 )
 Sum =     4.02174111; RHF =     4.00000000; Difference =     0.02174111

         1.96892544     1.91271963     0.06950731     0.01703917     0.01100226
         0.00968580     0.00728451     0.00577332     0.00436314     0.00373641
         0.00272506     0.00161375     0.00146022     0.00096311     0.00079446
         0.00074270     0.00062949     0.00053718     0.00041611     0.00038140
         0.00031578     0.00023940     0.00019745     0.00018608     0.00014990
         0.00013325     0.00012447     0.00009924     0.00007466     0.00005032
         0.00002201     0.00001921     0.00000950    -0.00018064

 Time used for MP2 natural orbitals :     449.000 CPU seconds,     450.764 wall seconds.

 CPU and wall time for MP2 :     449.000     450.764


        SIRIUS MCSCF optimization (SIROPT)
 ================================================


 Fock matrix screening setting for SIRCNO: IFTHRS =    9


 ----- Output from SIRIUS CI module (CICTL) -----




 2-el. integral transformation level 0: Total CPU and WALL times (sec)     100.016     100.050


 --- SIRCI.CIST1: plus combination of all degenerate
                 configurations is used as start vectors.


 (CIST1) 8 lowest diagonal elements:

 Element no. Config.no.    Active energy      Total energy

         1 :         47    -15.0927883830   -433.5502261514
         2 :         48    -14.8361343328   -433.2935721012
         3 :         56    -14.6560746414   -433.1135124098
         4 :         51    -14.5263607761   -432.9837985444
         5 :         49    -14.3168796244   -432.7743173928
         6 :         39    -14.3116655037   -432.7691032721
         7 :         31    -14.3106294279   -432.7680671963
         8 :          9    -14.3084606626   -432.7658984310


 Convergence threshold for CI optimization :     0.00000500



 *** Reached maximum number of CI iterations:    3
              1 CI roots are not converged.


@ Final CI energies and residuals in symmetry 1 (irrep A1 )
@    1     -433.554728065852032       1.71D-04

   --- OUTPUT FROM SIRCNO     Keyword = FD+NO 


 Occupations of CAS natural orbitals:

 Symmetry  1 ( irrep A1  in C2v )

   1.997965629

 Symmetry  2 ( irrep B1  in C2v )

   0.002487123

 Symmetry  3 ( irrep B2  in C2v )

   1.994251037   1.994602076

 Symmetry  4 ( irrep A2  in C2v )

   1.999551199   1.005744944   1.005397992


 --- MACRO ITERATION  1 ---
 --------------------------

 2-el. integral transformation level 3: Total CPU and WALL times (sec)     100.172     100.183

 Fock matrix screening setting for this macro iteration: 10^( -9)

 Total MCSCF energy       :          -433.554728064632513  (MACRO    1)

 - Nuclear repulsion      :           418.587416897267303
 - Inactive energy        :          -837.044854662516286
 - Active energy          :           -15.097290299383518

 Norm of total gradient   :             0.591187918273
 -    of CI gradient      :             0.000342161486
 -    of orbital gradient :             0.591187819257
      Virial theorem: -V/T =      1.983979
@    MULPOP   C       2.04; C   _1  0.06; C   _2  0.06; C   _1  0.50; C   _2  0.50; C       0.37; N       0.79; O   _1 -0.90; O   _2 -0.90; H   _1 -0.54; 
@             H   _2 -0.54; H   _1 -0.47; H   _2 -0.47; H      -0.49; 

 (SIRNEO) iteration (  1,  6)
 Micro iteration termination criterion met, EVAL(ISTATE+1) = -2.66D-03

   --- OUTPUT FROM SIRCNO     Keyword = FD+NO 


 Occupations of CAS natural orbitals:

 Symmetry  1 ( irrep A1  in C2v )

   1.992159548

 Symmetry  2 ( irrep B1  in C2v )

   0.008250019

 Symmetry  3 ( irrep B2  in C2v )

   1.992493981   1.993238287

 Symmetry  4 ( irrep A2  in C2v )

   1.999598164   1.007498252   1.006761748


 --- MACRO ITERATION  2 ---
 --------------------------

 2-el. integral transformation level 3: Total CPU and WALL times (sec)     100.797     100.806

 Fock matrix screening setting for this macro iteration: 10^( -9)

 Total MCSCF energy       :          -433.612024718907151  (MACRO    2)

 - Nuclear repulsion      :           418.587416897267303
 - Inactive energy        :          -836.785750093760043
 - Active energy          :           -15.413691522414419

 Norm of total gradient   :             0.086971103491
 -    of CI gradient      :             0.067673940689
 -    of orbital gradient :             0.054627928701
      Virial theorem: -V/T =      1.989480
@    MULPOP   C       2.33; C   _1 -0.41; C   _2 -0.41; C   _1  0.65; C   _2  0.65; C       0.43; N       0.94; O   _1 -0.88; O   _2 -0.88; H   _1 -0.53; 
@             H   _2 -0.53; H   _1 -0.45; H   _2 -0.45; H      -0.44; 

 (SIRNEO) iteration (  2,  4)
 Micro iteration termination criterion met, EVAL(ISTATE+1) = -5.88D-03

   --- OUTPUT FROM SIRCNO     Keyword = FD+NO 


 Occupations of CAS natural orbitals:

 Symmetry  1 ( irrep A1  in C2v )

   1.995269203

 Symmetry  2 ( irrep B1  in C2v )

   0.004959654

 Symmetry  3 ( irrep B2  in C2v )

   1.994347320   1.994791386

 Symmetry  4 ( irrep A2  in C2v )

   1.999776091   1.005647716   1.005208630


 --- MACRO ITERATION  3 ---
 --------------------------

 2-el. integral transformation level 3: Total CPU and WALL times (sec)     100.031     100.054

 Fock matrix screening setting for this macro iteration: 10^( -9)

 Total MCSCF energy       :          -433.615886216517652  (MACRO    3)

 - Nuclear repulsion      :           418.587416897267303
 - Inactive energy        :          -836.643206003368960
 - Active energy          :           -15.560097110416017

 Norm of total gradient   :             0.096225695838
 -    of CI gradient      :             0.059277915231
 -    of orbital gradient :             0.075799164279
      Virial theorem: -V/T =      1.983171
@    MULPOP   C       2.10; C   _1 -0.21; C   _2 -0.21; C   _1  0.62; C   _2  0.62; C       0.44; N       1.37; O   _1 -1.17; O   _2 -1.17; H   _1 -0.53; 
@             H   _2 -0.53; H   _1 -0.45; H   _2 -0.45; H      -0.45; 

 Residual norm when dim(red L) =   8
 NEO root     CSF        orbital          total
    1     0.00796327     0.00516411     0.00949114 converged

 (NEONEX) NEO vector is converged.

   --- OUTPUT FROM SIRCNO     Keyword = FD+NO 


 Occupations of CAS natural orbitals:

 Symmetry  1 ( irrep A1  in C2v )

   1.985229557

 Symmetry  2 ( irrep B1  in C2v )

   0.015512294

 Symmetry  3 ( irrep B2  in C2v )

   1.992795943   1.992821650

 Symmetry  4 ( irrep A2  in C2v )

   1.999258857   1.007203444   1.007178255


 --- MACRO ITERATION  4 ---
 --------------------------

 2-el. integral transformation level 3: Total CPU and WALL times (sec)     101.641     101.631

 Fock matrix screening setting for this macro iteration: 10^( -9)

 Total MCSCF energy       :          -433.623359249318696  (MACRO    4)

 - Nuclear repulsion      :           418.587416897267303
 - Inactive energy        :          -835.934714189263559
 - Active energy          :           -16.276061957322440

 Norm of total gradient   :             0.101561317679
 -    of CI gradient      :             0.099233749823
 -    of orbital gradient :             0.021618606448
      Virial theorem: -V/T =      1.976125
@    MULPOP   C       2.44; C   _1 -0.19; C   _2 -0.19; C   _1  0.54; C   _2  0.54; C       0.42; N       1.51; O   _1 -1.37; O   _2 -1.37; H   _1 -0.50; 
@             H   _2 -0.50; H   _1 -0.45; H   _2 -0.45; H      -0.44; 

 Residual norm when dim(red L) =   5
 NEO root     CSF        orbital          total
    1     0.01810427     0.00680891     0.01934233 converged

 (NEONEX) NEO vector is converged.

   --- OUTPUT FROM SIRCNO     Keyword = FD+NO 


 Occupations of CAS natural orbitals:

 Symmetry  1 ( irrep A1  in C2v )

   1.990215383

 Symmetry  2 ( irrep B1  in C2v )

   0.010260853

 Symmetry  3 ( irrep B2  in C2v )

   1.994391105   1.994392211

 Symmetry  4 ( irrep A2  in C2v )

   1.999523747   1.005608973   1.005607729


 --- MACRO ITERATION  5 ---
 --------------------------

 2-el. integral transformation level 3: Total CPU and WALL times (sec)     100.766     100.768

 Fock matrix screening setting for this macro iteration: 10^( -9)

 Total MCSCF energy       :          -433.626542795234229  (MACRO    5)

 - Nuclear repulsion      :           418.587416897267303
 - Inactive energy        :          -835.414029596911860
 - Active energy          :           -16.799930095589687

 Norm of total gradient   :             0.021982462755
 -    of CI gradient      :             0.018613035643
 -    of orbital gradient :             0.011695450951
      Virial theorem: -V/T =      1.971471
@    MULPOP   C       2.46; C   _1 -0.19; C   _2 -0.19; C   _1  0.53; C   _2  0.53; C       0.42; N       1.61; O   _1 -1.43; O   _2 -1.43; H   _1 -0.49; 
@             H   _2 -0.49; H   _1 -0.45; H   _2 -0.45; H      -0.44; 

 Residual norm when dim(red L) =   8
 NEO root     CSF        orbital          total
    1     0.00080400     0.00058809     0.00099612 converged

 (NEONEX) NEO vector is converged.

   --- OUTPUT FROM SIRCNO     Keyword = FD+NO 


 Occupations of CAS natural orbitals:

 Symmetry  1 ( irrep A1  in C2v )

   1.990554401

 Symmetry  2 ( irrep B1  in C2v )

   0.009918930

 Symmetry  3 ( irrep B2  in C2v )

   1.993068148   1.993071955

 Symmetry  4 ( irrep A2  in C2v )

   1.999526376   1.006932168   1.006928022


 --- MACRO ITERATION  6 ---
 --------------------------

 2-el. integral transformation level 3: Total CPU and WALL times (sec)     100.484     100.503

 Fock matrix screening setting for this macro iteration: 10^( -9)

 Total MCSCF energy       :          -433.626648637401559  (MACRO    6)

 - Nuclear repulsion      :           418.587416897267303
 - Inactive energy        :          -835.439126251214475
 - Active energy          :           -16.774939283454394

 Norm of total gradient   :             0.001444724976
 -    of CI gradient      :             0.001293477731
 -    of orbital gradient :             0.000643541463
      Virial theorem: -V/T =      1.971464
@    MULPOP   C       2.46; C   _1 -0.18; C   _2 -0.18; C   _1  0.53; C   _2  0.53; C       0.42; N       1.60; O   _1 -1.42; O   _2 -1.42; H   _1 -0.49; 
@             H   _2 -0.49; H   _1 -0.45; H   _2 -0.45; H      -0.44; 

 Residual norm when dim(red L) =  16
 NEO root     CSF        orbital          total
    1     0.00000416     0.00000416     0.00000588 converged

 (NEONEX) NEO vector is converged.

   --- OUTPUT FROM SIRCNO     Keyword = FD+NO 


 Occupations of CAS natural orbitals:

 Symmetry  1 ( irrep A1  in C2v )

   1.990591485

 Symmetry  2 ( irrep B1  in C2v )

   0.009882745

 Symmetry  3 ( irrep B2  in C2v )

   1.993043293   1.993046778

 Symmetry  4 ( irrep A2  in C2v )

   1.999525490   1.006957009   1.006953200


 --- MACRO ITERATION  7 ---
 --------------------------

 2-el. integral transformation level 3: Total CPU and WALL times (sec)     100.422     100.451

 Fock matrix screening setting for this macro iteration: 10^( -9)

 Total MCSCF energy       :          -433.626648868893824  (MACRO    7)

 - Nuclear repulsion      :           418.587416897267303
 - Inactive energy        :          -835.441285736262103
 - Active energy          :           -16.772780029899010

 Norm of total gradient   :             0.000006190135
 -    of CI gradient      :             0.000004494039
 -    of orbital gradient :             0.000004256922
      Virial theorem: -V/T =      1.971461
@    MULPOP   C       2.46; C   _1 -0.18; C   _2 -0.18; C   _1  0.53; C   _2  0.53; C       0.42; N       1.60; O   _1 -1.42; O   _2 -1.42; H   _1 -0.49; 
@             H   _2 -0.49; H   _1 -0.45; H   _2 -0.45; H      -0.44; 

 *** Optimization control: MCSCF converged ***
     Number of macro iterations used            7
     Number of micro iterations used           39
     Total number of CPU seconds used      2444.92

 CPU and wall time for MCSCF :    2444.922    2445.198


                     .----------------------------------------.
                     | --- SIRIUS OPTIMIZATION STATISTICS --- |
                     `----------------------------------------'


 
     Date and time (Linux)  : Mon Dec 16 08:32:13 2019
     Host name              : Lab2-333-NPs                            


  ITER ITMIC     EMCSCF           GRDNRM        RATIO      STPLNG
 ---------------------------------------------------------------------
    1    6   -433.554728064633   0.5911879183  0.000000   0.6996758917
    2    4   -433.612024718907   0.0869711035  0.882672   0.6964110352
    3    6   -433.615886216518   0.0962256958  0.995209   0.7146676066
    4    3   -433.623359249319   0.1015613177  0.546201   0.5003865008
    5    6   -433.626542795234   0.0219824628  0.944721   0.0348140912
    6   14   -433.626648637402   0.0014447250  1.010606   0.0030313855
    7    0   -433.626648868894   0.0000061901  0.998725   0.0000000000


  ITER  INDGCM  GCIMAX      GCINRM     INDGOM  GOBMAX      GOBNRM      GRDNRM
 ------------------------------------------------------------------------------
    1     37   -0.000190    0.000342   2740    0.136333    0.591188    0.591188
    2     37   -0.062939    0.067674   2733    0.013618    0.054628    0.086971
    3     37   -0.045090    0.059278   1608    0.013618    0.075799    0.096226
    4     37   -0.093907    0.099234   1603    0.005801    0.021619    0.101561
    5     37   -0.011367    0.018613   1583   -0.004892    0.011695    0.021982
    6     37   -0.001133    0.001293   2316    0.000098    0.000644    0.001445
    7     37   -0.000002    0.000004   2680   -0.000001    0.000004    0.000006


  ITER ITMIC NCLIN NOLIN   TIMMAC    TIMITR    TIMMIC    TIMLIN    TIMMIC/ITMIC
 ------------------------------------------------------------------------------

    1     6     1     5    344.34    100.17    213.66    183.02     35.61
    2     4     1     4    288.14    100.80    156.92    126.44     39.23
    3     6     3     4    343.80    100.03    213.16    182.62     35.53
    4     3     1     3    257.80    101.64    125.62     95.09     41.88
    5     6     3     4    344.03    100.77    212.78    182.33     35.46
    6    14     8     7    577.22    100.48    446.11    415.55     31.86
    7     0     0     0    131.05    100.42      0.00      0.00


 ITER         EMY                 EACTIV              EMCSCF

    1   -837.044854662516    -15.097290299384   -433.554728064633
    2   -836.785750093760    -15.413691522414   -433.612024718907
    3   -836.643206003369    -15.560097110416   -433.615886216518
    4   -835.934714189264    -16.276061957322   -433.623359249319
    5   -835.414029596912    -16.799930095590   -433.626542795234
    6   -835.439126251214    -16.774939283454   -433.626648637402
    7   -835.441285736262    -16.772780029899   -433.626648868894


 ITER         DEPRED              DEACT               RATIO

    1      0.000000000000      0.000000000000      0.000000000000
    2     -0.064912770941     -0.057296654275      0.882671521237
    3     -0.003880085974     -0.003861497611      0.995209290858
    4     -0.013681826618     -0.007473032801      0.546201396173
    5     -0.003369825651     -0.003183545916      0.944721254274
    6     -0.000104731396     -0.000105842167      1.010605901629
    7     -0.000000231788     -0.000000231492      0.998724581983


 ITER    BETA           GAMMA             STPLNG              RTRUST

    1      0.31305206  1.00000000      0.699675891650      0.700000000000
    2      1.67244390  1.00000000      0.696411035234      0.700000000000
    3      1.80896202  1.00000000      0.714667606559      0.700000000000
    4      0.20000000  1.00000000      0.500386500803      0.700000000000
    5      0.20000000  1.00000000      0.034814091226      0.700000000000
    6      0.20000000  1.00000000      0.003031385549      0.700000000000
    7      0.00000000  0.00000000      0.000000000000      0.700000000000


 Reduced L root no.  1
 ITER         EVAL              EVEC(1)           EVEC(2)           EVEC(3)
 ----------------------------------------------------------------------------
    1   -0.012140646266    0.976841866607   -0.205189011482   -0.032292924237
    2   -0.009210826668   -0.651421476819    0.019875349691    0.247264498591
    3   -0.033519874133   -0.611835540987    0.049732183449    0.772967286220
    4   -0.000266912796    0.995029571856   -0.003913899674   -0.085902680812
    5   -0.000008378106    0.999975760462   -0.001786038000   -0.006540344205
    6   -0.000000018543    0.999999816214   -0.000041976629   -0.000586821840
    7    0.000000000000    0.000000000000    0.000000000000    0.000000000000


                       .-----------------------------------.
                       | --- Final results from SIRIUS --- |
                       `-----------------------------------'


@    Spin multiplicity:           3
@    Spatial symmetry:            1 ( irrep  A1  in C2v )
@    Total charge of molecule:    0
@    State number:                1

@    Final MCSCF energy:         -433.626648868894                 
@    Nuclear repulsion:           418.587416897267
@    Electronic energy:          -852.214065766161

@    Final gradient norm:           0.000006190135

 
     Date and time (Linux)  : Mon Dec 16 08:32:13 2019
     Host name              : Lab2-333-NPs                            

 Occupancies of natural orbitals
 -------------------------------

 Symmetry 1  ( A1 ) -- Total occupation in this symmetry is  31.990591485

   2.000000000   2.000000000   2.000000000   2.000000000   2.000000000
   2.000000000   2.000000000   2.000000000   2.000000000   2.000000000
   2.000000000   2.000000000   2.000000000   2.000000000   2.000000000
   1.990591485

 Symmetry 2  ( B1 ) -- Total occupation in this symmetry is  20.009882745

   2.000000000   2.000000000   2.000000000   2.000000000   2.000000000
   2.000000000   2.000000000   2.000000000   2.000000000   2.000000000
   0.009882745

 Symmetry 3  ( B2 ) -- Total occupation in this symmetry is   7.986090071

   2.000000000   2.000000000   1.993043293   1.993046778

 Symmetry 4  ( A2 ) -- Total occupation in this symmetry is   4.013435699

   1.999525490   1.006957009   1.006953200

File label for MO orbitals:  16Dec19   (CNOORB)

 (Only coefficients > 0.0100 are printed.)

 Molecular orbitals for symmetry species 1  (A1 )
 ------------------------------------------------

[...]
 INERTIA (POS,ZER,NEG) of reduced matrix is   25    0    1
 Determinant of reduced matrix is -8.46 * 10 **-17.0

       No.  Residual tot.,    conf., and orb.    Bnorm      Frequency 
      ----------------------------------------------------------------
         1    5.23747D+01  3.99D+00  5.22D+01  1.81D+04    1.16800D-01

 ** RSPCTL MICROITERATION NUMBER   13

 *** INFO, negative eigenvalues in reduced matrix. Symmetry  4,  triplet       F Dimension of reduced matrix =    28

 GP * SOLUTION vector at frequency     0.11680 a.u.
 after   14 linear transformations is      5.20103091D+05
 INERTIA (POS,ZER,NEG) of reduced matrix is   27    0    1
 Determinant of reduced matrix is -7.56 * 10 **-18.0

       No.  Residual tot.,    conf., and orb.    Bnorm      Frequency 
      ----------------------------------------------------------------
         1    2.85694D+01  5.02D+00  2.81D+01  1.82D+04    1.16800D-01

 ** RSPCTL MICROITERATION NUMBER   14

 *** INFO, negative eigenvalues in reduced matrix. Symmetry  4,  triplet       F Dimension of reduced matrix =    30

 GP * SOLUTION vector at frequency     0.11680 a.u.
 after   15 linear transformations is      5.20843953D+05
 INERTIA (POS,ZER,NEG) of reduced matrix is   29    0    1
 Determinant of reduced matrix is -9.47 * 10 **-19.0

       No.  Residual tot.,    conf., and orb.    Bnorm      Frequency 
      ----------------------------------------------------------------
         1    1.34462D+01  4.40D+00  1.27D+01  1.83D+04    1.16800D-01

 *** THE REQUESTED    1 SOLUTION VECTORS CONVERGED

 Convergence of RSP solution vectors, threshold = 1.00D-03
 ---------------------------------------------------------------
 (dimension of paired reduced space:   30)
 RSP solution vector no.    1; norm of residual   7.36D-04

 *** RSPCTL MICROITERATIONS CONVERGED
    YDIPLEN     XDIPLEN      freq1     freq2                Norm
 ---------------------------------------------------------------
                          0.058400  0.058400      18266.59730045


 Perturbation symmetry.     KSYMOP:       4
 Perturbation spin symmetry.TRPLET:       F
 Orbital variables.         KZWOPT:    1664
 Configuration variables.   KZCONF:      65
 Total number of variables. KZVAR :    1729


 CRLRV2 -- linear response calc for sym:  4
 CRLRV2 -- operator label1: XDIPLEN 
 CRLRV2 -- operator label2: YDIPLEN 
 CRLRV2 -- freqr1 :   5.840000D-02
 CRLRV2 -- freqr2 :  -5.840000D-02



 ---  SOLVING SETS OF LINEAR EQUATIONS FOR LINEAR RESPONSE PROPERTIES ---

 Operator symmetry = 4  ( A2 ); triplet =   F


 ** RSPCTL MICROITERATION NUMBER    1

       No.  Residual tot.,    conf., and orb.    Bnorm      Frequency 
      ----------------------------------------------------------------
         1    2.64457D+01  1.42D+00  2.64D+01  2.59D+02    0.00000D+00

 ** RSPCTL MICROITERATION NUMBER    2

       No.  Residual tot.,    conf., and orb.    Bnorm      Frequency 
      ----------------------------------------------------------------
         1    1.05531D+01  1.73D+00  1.04D+01  3.05D+02    0.00000D+00

 ** RSPCTL MICROITERATION NUMBER    3

       No.  Residual tot.,    conf., and orb.    Bnorm      Frequency 
      ----------------------------------------------------------------
         1    4.64947D+00  1.87D+00  4.26D+00  3.16D+02    0.00000D+00

 ** RSPCTL MICROITERATION NUMBER    4

       No.  Residual tot.,    conf., and orb.    Bnorm      Frequency 
      ----------------------------------------------------------------
         1    2.48514D+00  1.89D+00  1.62D+00  3.17D+02    0.00000D+00

 ** RSPCTL MICROITERATION NUMBER    5

       No.  Residual tot.,    conf., and orb.    Bnorm      Frequency 
      ----------------------------------------------------------------
         1    1.80652D+00  7.80D-01  1.63D+00  3.17D+02    0.00000D+00

 ** RSPCTL MICROITERATION NUMBER    6

       No.  Residual tot.,    conf., and orb.    Bnorm      Frequency 
      ----------------------------------------------------------------
         1    9.81828D-01  7.85D-01  5.90D-01  3.18D+02    0.00000D+00

 ** RSPCTL MICROITERATION NUMBER    7

       No.  Residual tot.,    conf., and orb.    Bnorm      Frequency 
      ----------------------------------------------------------------
         1    6.12710D-01  1.53D-01  5.93D-01  3.18D+02    0.00000D+00

 ** RSPCTL MICROITERATION NUMBER    8

       No.  Residual tot.,    conf., and orb.    Bnorm      Frequency 
      ----------------------------------------------------------------
         1    3.32389D-01  1.72D-01  2.85D-01  3.19D+02    0.00000D+00

 ** RSPCTL MICROITERATION NUMBER    9

       No.  Residual tot.,    conf., and orb.    Bnorm      Frequency 
      ----------------------------------------------------------------
         1    3.01356D-01  1.78D-01  2.43D-01  3.20D+02    0.00000D+00

 *** THE REQUESTED    1 SOLUTION VECTORS CONVERGED

 Convergence of RSP solution vectors, threshold = 1.00D-03
 ---------------------------------------------------------------
 (dimension of paired reduced space:   20)
 RSP solution vector no.    1; norm of residual   9.41D-04

 *** RSPCTL MICROITERATIONS CONVERGED
    XDIPLEN     YDIPLEN      freq1     freq2                Norm
 ---------------------------------------------------------------
                          0.058400 -0.058400        320.12975063


 Perturbation symmetry.     KSYMOP:       1
 Perturbation spin symmetry.TRPLET:       F
 Orbital variables.         KZWOPT:    2762
 Configuration variables.   KZCONF:      56
 Total number of variables. KZVAR :    2818


 CRLRV2 -- linear response calc for sym:  1
 CRLRV2 -- operator label1: YDIPLEN 
 CRLRV2 -- operator label2: YDIPLEN 
 CRLRV2 -- freqr1 :   5.840000D-02
 CRLRV2 -- freqr2 :   5.840000D-02



 ---  SOLVING SETS OF LINEAR EQUATIONS FOR LINEAR RESPONSE PROPERTIES ---

 Operator symmetry = 1  ( A1 ); triplet =   F


 ** RSPCTL MICROITERATION NUMBER    1

       No.  Residual tot.,    conf., and orb.    Bnorm      Frequency 
      ----------------------------------------------------------------
         1    3.98597D+01  1.02D+00  3.98D+01  2.96D+02    1.16800D-01

 ** RSPCTL MICROITERATION NUMBER    2

       No.  Residual tot.,    conf., and orb.    Bnorm      Frequency 
      ----------------------------------------------------------------
         1    2.15766D+01  1.43D+00  2.15D+01  3.79D+02    1.16800D-01

 ** RSPCTL MICROITERATION NUMBER    3

       No.  Residual tot.,    conf., and orb.    Bnorm      Frequency 
      ----------------------------------------------------------------
         1    1.09801D+01  1.57D+00  1.09D+01  3.97D+02    1.16800D-01

 ** RSPCTL MICROITERATION NUMBER    4

       No.  Residual tot.,    conf., and orb.    Bnorm      Frequency 
      ----------------------------------------------------------------
         1    4.88261D+00  1.59D+00  4.62D+00  4.02D+02    1.16800D-01

 ** RSPCTL MICROITERATION NUMBER    5

       No.  Residual tot.,    conf., and orb.    Bnorm      Frequency 
      ----------------------------------------------------------------
         1    4.71556D+00  1.57D+00  4.45D+00  4.05D+02    1.16800D-01

 ** RSPCTL MICROITERATION NUMBER    6

       No.  Residual tot.,    conf., and orb.    Bnorm      Frequency 
      ----------------------------------------------------------------
         1    2.52141D+00  1.55D+00  1.99D+00  4.06D+02    1.16800D-01

 ** RSPCTL MICROITERATION NUMBER    7

       No.  Residual tot.,    conf., and orb.    Bnorm      Frequency 
      ----------------------------------------------------------------
         1    1.79673D+00  1.54D+00  9.20D-01  4.07D+02    1.16800D-01

 ** RSPCTL MICROITERATION NUMBER    8

       No.  Residual tot.,    conf., and orb.    Bnorm      Frequency 
      ----------------------------------------------------------------
         1    1.23167D+00  7.88D-01  9.47D-01  4.07D+02    1.16800D-01

 ** RSPCTL MICROITERATION NUMBER    9

       No.  Residual tot.,    conf., and orb.    Bnorm      Frequency 
      ----------------------------------------------------------------
         1    8.64464D-01  7.98D-01  3.33D-01  4.07D+02    1.16800D-01

 ** RSPCTL MICROITERATION NUMBER   10

       No.  Residual tot.,    conf., and orb.    Bnorm      Frequency 
      ----------------------------------------------------------------
         1    3.34866D-01  3.16D-02  3.33D-01  4.07D+02    1.16800D-01

 *** THE REQUESTED    1 SOLUTION VECTORS CONVERGED

 Convergence of RSP solution vectors, threshold = 1.00D-03
 ---------------------------------------------------------------
 (dimension of paired reduced space:   22)
 RSP solution vector no.    1; norm of residual   8.23D-04

 *** RSPCTL MICROITERATIONS CONVERGED
    YDIPLEN     YDIPLEN      freq1     freq2                Norm
 ---------------------------------------------------------------
                          0.058400  0.058400        407.10803692
  Time used in CRVEC2     is       2 hours 13 minutes 10 seconds


 ----- CALCULATING CONTRIBUTIONS TO SECOND HYPERPOLARIZABILITY -----


   Contribution                Term         Accumulated
 ------------------------------------------------------
 Na T[4] Nb Nc Nd    -6854.24325420      -6854.24325420
 Na T[3] Nx Nyz      10344.46918967       3490.22593548
 Na X[3] Ny Nz       15326.24634938      18816.47228486
 Nx A[3] Ny Nz        5108.74878313      23925.22106799
 Na X[2] Nyz        -33413.68523745      -9488.46416946
 Nx A[2] Nyz        -33226.35957853     -42714.82374800

@ Cubic response function value in a.u. for
@ A operator, symmetry, frequency:   ZDIPLEN    1 -0.058400
@ B operator, symmetry, frequency:   ZDIPLEN    1  0.058400
@ C operator, symmetry, frequency:   ZDIPLEN    1 -0.058400
@ D operator, symmetry, frequency:   ZDIPLEN    1  0.058400

@ << A; B, C, D >>  =      -42714.82374800



   Contribution                Term         Accumulated
 ------------------------------------------------------
 Na T[4] Nb Nc Nd    -4153.38090862      -4153.38090862
 Na T[3] Nx Nyz      -2674.25015804      -6827.63106666
 Na X[3] Ny Nz       12670.55679091       5842.92572425
 Nx A[3] Ny Nz        1611.86414716       7454.78987141
 Na X[2] Nyz        -34592.05280399     -27137.26293258
 Nx A[2] Nyz        -24625.60356157     -51762.86649415

@ Cubic response function value in a.u. for
@ A operator, symmetry, frequency:   XDIPLEN    2 -0.058400
@ B operator, symmetry, frequency:   XDIPLEN    2  0.058400
@ C operator, symmetry, frequency:   ZDIPLEN    1 -0.058400
@ D operator, symmetry, frequency:   ZDIPLEN    1  0.058400

@ << A; B, C, D >>  =      -51762.86649415



   Contribution                Term         Accumulated
 ------------------------------------------------------
 Na T[4] Nb Nc Nd     -894.43271976       -894.43271976
 Na T[3] Nx Nyz      -2306.21694716      -3200.64966692
 Na X[3] Ny Nz        1802.40388528      -1398.24578164
 Nx A[3] Ny Nz         654.09914755       -744.14663409
 Na X[2] Nyz         26586.54434072      25842.39770663
 Nx A[2] Nyz         16395.85470433      42238.25241097

@ Cubic response function value in a.u. for
@ A operator, symmetry, frequency:   YDIPLEN    3 -0.058400
@ B operator, symmetry, frequency:   YDIPLEN    3  0.058400
@ C operator, symmetry, frequency:   ZDIPLEN    1 -0.058400
@ D operator, symmetry, frequency:   ZDIPLEN    1  0.058400

@ << A; B, C, D >>  =       42238.25241097



   Contribution                Term         Accumulated
 ------------------------------------------------------
 Na T[4] Nb Nc Nd    -1265.34855229      -1265.34855229
 Na T[3] Nx Nyz      -4040.22450557      -5305.57305785
 Na X[3] Ny Nz        6268.22080651        962.64774866
 Nx A[3] Ny Nz        1355.56960446       2318.21735312
 Na X[2] Nyz        -40756.05620161     -38437.83884849
 Nx A[2] Nyz        -21128.61243519     -59566.45128368

@ Cubic response function value in a.u. for
@ A operator, symmetry, frequency:   XDIPLEN    2 -0.058400
@ B operator, symmetry, frequency:   ZDIPLEN    1  0.058400
@ C operator, symmetry, frequency:   XDIPLEN    2 -0.058400
@ D operator, symmetry, frequency:   ZDIPLEN    1  0.058400

@ << A; B, C, D >>  =      -59566.45128368



   Contribution                Term         Accumulated
 ------------------------------------------------------
 Na T[4] Nb Nc Nd     -765.02470588       -765.02470588
 Na T[3] Nx Nyz       3331.72680871       2566.70210284
 Na X[3] Ny Nz        1546.35477676       4113.05687959
 Nx A[3] Ny Nz         578.54717482       4691.60405442
 Na X[2] Nyz        -19605.59935159     -14913.99529717
 Nx A[2] Nyz        -16805.61713587     -31719.61243305

@ Cubic response function value in a.u. for
@ A operator, symmetry, frequency:   YDIPLEN    3 -0.058400
@ B operator, symmetry, frequency:   ZDIPLEN    1  0.058400
@ C operator, symmetry, frequency:   YDIPLEN    3 -0.058400
@ D operator, symmetry, frequency:   ZDIPLEN    1  0.058400

@ << A; B, C, D >>  =      -31719.61243305



   Contribution                Term         Accumulated
 ------------------------------------------------------
 Na T[4] Nb Nc Nd    -1358.29311208      -1358.29311208
 Na T[3] Nx Nyz       1855.65841320        497.36530112
 Na X[3] Ny Nz        4098.25005575       4595.61535686
 Nx A[3] Ny Nz        2099.92068295       6695.53603982
 Na X[2] Nyz        -26437.96351829     -19742.42747847
 Nx A[2] Nyz        -39835.01222991     -59577.43970838

@ Cubic response function value in a.u. for
@ A operator, symmetry, frequency:   ZDIPLEN    1 -0.058400
@ B operator, symmetry, frequency:   XDIPLEN    2  0.058400
@ C operator, symmetry, frequency:   ZDIPLEN    1 -0.058400
@ D operator, symmetry, frequency:   XDIPLEN    2  0.058400

@ << A; B, C, D >>  =      -59577.43970838



   Contribution                Term         Accumulated
 ------------------------------------------------------
 Na T[4] Nb Nc Nd   184823.03961063     184823.03961063
 Na T[3] Nx Nyz    -108551.12670047      76271.91291016
 Na X[3] Ny Nz       70393.99355734     146665.90646750
 Nx A[3] Ny Nz       23464.66451911     170130.57098661
 Na X[2] Nyz        -17176.36354350     152954.20744311
 Nx A[2] Nyz        -22295.27227428     130658.93516882

@ Cubic response function value in a.u. for
@ A operator, symmetry, frequency:   XDIPLEN    2 -0.058400
@ B operator, symmetry, frequency:   XDIPLEN    2  0.058400
@ C operator, symmetry, frequency:   XDIPLEN    2 -0.058400
@ D operator, symmetry, frequency:   XDIPLEN    2  0.058400

@ << A; B, C, D >>  =      130658.93516882



   Contribution                Term         Accumulated
 ------------------------------------------------------
 Na T[4] Nb Nc Nd    -1805.30318438      -1805.30318438
 Na T[3] Nx Nyz     -15258.31050268     -17063.61368706
 Na X[3] Ny Nz        7277.91960629      -9785.69408077
 Nx A[3] Ny Nz        3392.87736974      -6392.81671103
 Na X[2] Nyz       -312749.45630987    -319142.27302091
 Nx A[2] Nyz       -213624.41208365    -532766.68510456

@ Cubic response function value in a.u. for
@ A operator, symmetry, frequency:   YDIPLEN    3 -0.058400
@ B operator, symmetry, frequency:   YDIPLEN    3  0.058400
@ C operator, symmetry, frequency:   XDIPLEN    2 -0.058400
@ D operator, symmetry, frequency:   XDIPLEN    2  0.058400

@ << A; B, C, D >>  =     -532766.68510456



   Contribution                Term         Accumulated
 ------------------------------------------------------
 Na T[4] Nb Nc Nd    -1362.16874482      -1362.16874482
 Na T[3] Nx Nyz       1207.64647807       -154.52226674
 Na X[3] Ny Nz        5660.40539108       5505.88312434
 Nx A[3] Ny Nz        2632.97631639       8138.85944073
 Na X[2] Nyz        -20104.76577812     -11965.90633739
 Nx A[2] Nyz        -17733.69939608     -29699.60573347

@ Cubic response function value in a.u. for
@ A operator, symmetry, frequency:   YDIPLEN    3 -0.058400
@ B operator, symmetry, frequency:   XDIPLEN    2  0.058400
@ C operator, symmetry, frequency:   YDIPLEN    3 -0.058400
@ D operator, symmetry, frequency:   XDIPLEN    2  0.058400

@ << A; B, C, D >>  =      -29699.60573347



   Contribution                Term         Accumulated
 ------------------------------------------------------
 Na T[4] Nb Nc Nd     -642.48288020       -642.48288020
 Na T[3] Nx Nyz       2492.99269288       1850.50981268
 Na X[3] Ny Nz        1482.66651995       3333.17633263
 Nx A[3] Ny Nz         431.12659075       3764.30292338
 Na X[2] Nyz        -16316.02475264     -12551.72182926
 Nx A[2] Nyz        -19177.08739117     -31728.80922043

@ Cubic response function value in a.u. for
@ A operator, symmetry, frequency:   ZDIPLEN    1 -0.058400
@ B operator, symmetry, frequency:   YDIPLEN    3  0.058400
@ C operator, symmetry, frequency:   ZDIPLEN    1 -0.058400
@ D operator, symmetry, frequency:   YDIPLEN    3  0.058400

@ << A; B, C, D >>  =      -31728.80922043



   Contribution                Term         Accumulated
 ------------------------------------------------------
 Na T[4] Nb Nc Nd    -1466.08774566      -1466.08774566
 Na T[3] Nx Nyz       5064.34022644       3598.25248077
 Na X[3] Ny Nz        6636.55641696      10234.80889773
 Nx A[3] Ny Nz        1466.01095296      11700.81985069
 Na X[2] Nyz        -19223.42643849      -7522.60658780
 Nx A[2] Nyz        -22169.85183694     -29692.45842474

@ Cubic response function value in a.u. for
@ A operator, symmetry, frequency:   XDIPLEN    2 -0.058400
@ B operator, symmetry, frequency:   YDIPLEN    3  0.058400
@ C operator, symmetry, frequency:   XDIPLEN    2 -0.058400
@ D operator, symmetry, frequency:   YDIPLEN    3  0.058400

@ << A; B, C, D >>  =      -29692.45842474



   Contribution                Term         Accumulated
 ------------------------------------------------------
 Na T[4] Nb Nc Nd    -1000.33799797      -1000.33799797
 Na T[3] Nx Nyz       5055.65501799       4055.31702002
 Na X[3] Ny Nz        3621.39176712       7676.70878714
 Nx A[3] Ny Nz        1207.13058904       8883.83937618
 Na X[2] Nyz        -22640.30275140     -13756.46337522
 Nx A[2] Nyz        -22695.32778344     -36451.79115865

@ Cubic response function value in a.u. for
@ A operator, symmetry, frequency:   YDIPLEN    3 -0.058400
@ B operator, symmetry, frequency:   YDIPLEN    3  0.058400
@ C operator, symmetry, frequency:   YDIPLEN    3 -0.058400
@ D operator, symmetry, frequency:   YDIPLEN    3  0.058400

@ << A; B, C, D >>  =      -36451.79115865



  Summary of gamma values for a set of frequencies
 -------------------------------------------------

@ B-freq:  0.058400
@ C-freq: -0.058400
@ D-freq:  0.058400

@ gamma(X;X,X,X)    -130658.9352
@ gamma(X;X,Y,Y)     532766.6851
@ gamma(X;Y,Y,X)     532766.6851
@ gamma(X;Y,X,Y)      29692.4584
@ gamma(X;X,Z,Z)      51762.8665
@ gamma(X;Z,Z,X)      51762.8665
@ gamma(X;Z,X,Z)      59566.4513
@ gamma(Y;Y,X,X)     532766.6851
@ gamma(Y;X,X,Y)     532766.6851
@ gamma(Y;X,Y,X)      29699.6057
@ gamma(Y;Y,Y,Y)      36451.7912
@ gamma(Y;Y,Z,Z)     -42238.2524
@ gamma(Y;Z,Z,Y)     -42238.2524
@ gamma(Y;Z,Y,Z)      31719.6124
@ gamma(Z;Z,X,X)      51762.8665
@ gamma(Z;X,X,Z)      51762.8665
@ gamma(Z;X,Z,X)      59577.4397
@ gamma(Z;Z,Y,Y)     -42238.2524
@ gamma(Z;Y,Y,Z)     -42238.2524
@ gamma(Z;Y,Z,Y)      31728.8092
@ gamma(Z;Z,Z,Z)      42714.8237

@ Averaged gamma parallel to the applied field is    150444.840851

  Total CPU  time used in RESPONSE:   7 hours  7 minutes 50 seconds
  Total wall time used in RESPONSE:   7 hours  8 minutes  3 seconds


                   .-------------------------------------------.
                   | End of Dynamic Property Section (RESPONS) |
                   `-------------------------------------------'

  Total CPU  time used in DALTON:   8 hours  3 minutes  7 seconds
  Total wall time used in DALTON:   8 hours  3 minutes 22 seconds

 
     Date and time (Linux)  : Mon Dec 16 15:40:16 2019
     Host name              : Lab2-333-NPs                            
