

     ************************************************************************
     *************** Dalton - An Electronic Structure Program ***************
     ************************************************************************

    This is output from DALTON release Dalton2018.1 (2019)
         ( Web site: http://daltonprogram.org )

   ----------------------------------------------------------------------------

    NOTE:
     
    Dalton is an experimental code for the evaluation of molecular
    properties using (MC)SCF, DFT, CI, and CC wave functions.
    The authors accept no responsibility for the performance of
    the code or for the correctness of the results.
     
    The code (in whole or part) is provided under a licence and
    is not to be reproduced for further distribution without
    the written permission of the authors or their representatives.
     
    See the home page "http://daltonprogram.org" for further information.
     
    If results obtained with this code are published,
    the appropriate citations would be both of:
     
       K. Aidas, C. Angeli, K. L. Bak, V. Bakken, R. Bast,
       L. Boman, O. Christiansen, R. Cimiraglia, S. Coriani,
       P. Dahle, E. K. Dalskov, U. Ekstroem,
       T. Enevoldsen, J. J. Eriksen, P. Ettenhuber, B. Fernandez,
       L. Ferrighi, H. Fliegl, L. Frediani, K. Hald, A. Halkier,
       C. Haettig, H. Heiberg, T. Helgaker, A. C. Hennum,
       H. Hettema, E. Hjertenaes, S. Hoest, I.-M. Hoeyvik,
       M. F. Iozzi, B. Jansik, H. J. Aa. Jensen, D. Jonsson,
       P. Joergensen, J. Kauczor, S. Kirpekar,
       T. Kjaergaard, W. Klopper, S. Knecht, R. Kobayashi, H. Koch,
       J. Kongsted, A. Krapp, K. Kristensen, A. Ligabue,
       O. B. Lutnaes, J. I. Melo, K. V. Mikkelsen, R. H. Myhre,
       C. Neiss, C. B. Nielsen, P. Norman, J. Olsen,
       J. M. H. Olsen, A. Osted, M. J. Packer, F. Pawlowski,
       T. B. Pedersen, P. F. Provasi, S. Reine, Z. Rinkevicius,
       T. A. Ruden, K. Ruud, V. Rybkin, P. Salek, C. C. M. Samson,
       A. Sanchez de Meras, T. Saue, S. P. A. Sauer,
       B. Schimmelpfennig, K. Sneskov, A. H. Steindal,
       K. O. Sylvester-Hvid, P. R. Taylor, A. M. Teale,
       E. I. Tellgren, D. P. Tew, A. J. Thorvaldsen, L. Thoegersen,
       O. Vahtras, M. A. Watson, D. J. D. Wilson, M. Ziolkowski
       and H. Agren,
       "The Dalton quantum chemistry program system",
       WIREs Comput. Mol. Sci. 2014, 4:269–284 (doi: 10.1002/wcms.1172)
     
    and
     
       Dalton, a molecular electronic structure program,
       Release Dalton2018.1 (2019), see http://daltonprogram.org
   ----------------------------------------------------------------------------

    Authors in alphabetical order (major contribution(s) in parenthesis):

  Kestutis Aidas,           Vilnius University,           Lithuania   (QM/MM)
  Celestino Angeli,         University of Ferrara,        Italy       (NEVPT2)
  Keld L. Bak,              UNI-C,                        Denmark     (AOSOPPA, non-adiabatic coupling, magnetic properties)
  Vebjoern Bakken,          University of Oslo,           Norway      (DALTON; geometry optimizer, symmetry detection)
  Radovan Bast,             UiT The Arctic U. of Norway,  Norway      (DALTON installation and execution frameworks)
  Pablo Baudin,             University of Valencia,       Spain       (Cholesky excitation energies)
  Linus Boman,              NTNU,                         Norway      (Cholesky decomposition and subsystems)
  Ove Christiansen,         Aarhus University,            Denmark     (CC module)
  Renzo Cimiraglia,         University of Ferrara,        Italy       (NEVPT2)
  Sonia Coriani,            Technical Univ. of Denmark,   Denmark     (CC module, MCD in RESPONS)
  Janusz Cukras,            University of Trieste,        Italy       (MChD in RESPONS)
  Paal Dahle,               University of Oslo,           Norway      (Parallelization)
  Erik K. Dalskov,          UNI-C,                        Denmark     (SOPPA)
  Thomas Enevoldsen,        Univ. of Southern Denmark,    Denmark     (SOPPA)
  Janus J. Eriksen,         Aarhus University,            Denmark     (Polarizable embedding model, TDA)
  Rasmus Faber,             University of Copenhagen,     Denmark     (Vib.avg. NMR with SOPPA, parallel AO-SOPPA)
  Tobias Fahleson,          KTH Stockholm,                Sweden      (Damped cubic response)
  Berta Fernandez,          U. of Santiago de Compostela, Spain       (doublet spin, ESR in RESPONS)
  Lara Ferrighi,            Aarhus University,            Denmark     (PCM Cubic response)
  Heike Fliegl,             University of Oslo,           Norway      (CCSD(R12))
  Luca Frediani,            UiT The Arctic U. of Norway,  Norway      (PCM)
  Bin Gao,                  UiT The Arctic U. of Norway,  Norway      (Gen1Int library)
  Christof Haettig,         Ruhr-University Bochum,       Germany     (CC module)
  Kasper Hald,              Aarhus University,            Denmark     (CC module)
  Asger Halkier,            Aarhus University,            Denmark     (CC module)
  Frederik Beyer Hansen,    University of Copenhagen,     Denmark     (Parallel AO-SOPPA)
  Erik D. Hedegaard,        Univ. of Southern Denmark,    Denmark     (Polarizable embedding model, QM/MM)
  Hanne Heiberg,            University of Oslo,           Norway      (geometry analysis, selected one-electron integrals)
  Trygve Helgaker,          University of Oslo,           Norway      (DALTON; ABACUS, ERI, DFT modules, London, and much more)
  Alf Christian Hennum,     University of Oslo,           Norway      (Parity violation)
  Hinne Hettema,            University of Auckland,       New Zealand (quadratic response in RESPONS; SIRIUS supersymmetry)
  Eirik Hjertenaes,         NTNU,                         Norway      (Cholesky decomposition)
  Pi A. B. Haase,           University of Copenhagen,     Denmark     (Triplet AO-SOPPA)
  Maria Francesca Iozzi,    University of Oslo,           Norway      (RPA)
  Christoph Jacob           TU Braunschweig               Germany     (Frozen density embedding model)
  Brano Jansik              Technical Univ. of Ostrava    Czech Rep.  (DFT cubic response)
  Hans Joergen Aa. Jensen,  Univ. of Southern Denmark,    Denmark     (DALTON; SIRIUS, RESPONS, ABACUS modules, London, and much more)
  Dan Jonsson,              UiT The Arctic U. of Norway,  Norway      (cubic response in RESPONS module)
  Poul Joergensen,          Aarhus University,            Denmark     (RESPONS, ABACUS, and CC modules)
  Maciej Kaminski,          University of Warsaw,         Poland      (CPPh in RESPONS)
  Joanna Kauczor,           Linkoeping University,        Sweden      (Complex polarization propagator (CPP) module)
  Sheela Kirpekar,          Univ. of Southern Denmark,    Denmark     (Mass-velocity & Darwin integrals)
  Wim Klopper,              KIT Karlsruhe,                Germany     (R12 code in CC, SIRIUS, and ABACUS modules)
  Stefan Knecht,            ETH Zurich,                   Switzerland (Parallel CI and MCSCF)
  Rika Kobayashi,           Australian National Univ.,    Australia   (DIIS in CC, London in MCSCF)
  Henrik Koch,              NTNU,                         Norway      (CC module, Cholesky decomposition)
  Jacob Kongsted,           Univ. of Southern Denmark,    Denmark     (Polarizable embedding model, QM/MM)
  Andrea Ligabue,           University of Modena,         Italy       (CTOCD, AOSOPPA)
  Nanna H. List             Univ. of Southern Denmark,    Denmark     (Polarizable embedding model)
  Ola B. Lutnaes,           University of Oslo,           Norway      (DFT Hessian)
  Juan I. Melo,             University of Buenos Aires,   Argentina   (LRESC, Relativistic Effects on NMR Shieldings)
  Kurt V. Mikkelsen,        University of Copenhagen,     Denmark     (MC-SCRF and QM/MM)
  Rolf H. Myhre,            NTNU,                         Norway      (Subsystems and CC3)
  Christian Neiss,          Univ. Erlangen-Nuernberg,     Germany     (CCSD(R12))
  Christian B. Nielsen,     University of Copenhagen,     Denmark     (QM/MM)
  Patrick Norman,           KTH Stockholm,                Sweden      (Cubic response and complex frequency response in RESPONS)
  Jeppe Olsen,              Aarhus University,            Denmark     (SIRIUS CI/density modules)
  Jogvan Magnus H. Olsen,   Univ. of Southern Denmark,    Denmark     (Polarizable embedding model, QM/MM)
  Anders Osted,             Copenhagen University,        Denmark     (QM/MM)
  Martin J. Packer,         University of Sheffield,      UK          (SOPPA)
  Filip Pawlowski,          Kazimierz Wielki University,  Poland      (CC3)
  Morten N. Pedersen,       Univ. of Southern Denmark,    Denmark     (Polarizable embedding model)
  Thomas B. Pedersen,       University of Oslo,           Norway      (Cholesky decomposition)
  Patricio F. Provasi,      University of Northeastern,   Argentina   (Analysis of coupling constants in localized orbitals)
  Zilvinas Rinkevicius,     KTH Stockholm,                Sweden      (open-shell DFT, ESR)
  Elias Rudberg,            KTH Stockholm,                Sweden      (DFT grid and basis info)
  Torgeir A. Ruden,         University of Oslo,           Norway      (Numerical derivatives in ABACUS)
  Kenneth Ruud,             UiT The Arctic U. of Norway,  Norway      (DALTON; ABACUS magnetic properties and much more)
  Pawel Salek,              KTH Stockholm,                Sweden      (DALTON; DFT code)
  Claire C. M. Samson       University of Karlsruhe       Germany     (Boys localization, r12 integrals in ERI)
  Alfredo Sanchez de Meras, University of Valencia,       Spain       (CC module, Cholesky decomposition)
  Trond Saue,               Paul Sabatier University,     France      (direct Fock matrix construction)
  Stephan P. A. Sauer,      University of Copenhagen,     Denmark     (SOPPA(CCSD), SOPPA prop., AOSOPPA, vibrational g-factors)
  Andre S. P. Gomes,        CNRS/Universite de Lille,     France      (Frozen density embedding model)
  Bernd Schimmelpfennig,    Forschungszentrum Karlsruhe,  Germany     (AMFI module)
  Kristian Sneskov,         Aarhus University,            Denmark     (Polarizable embedding model, QM/MM)
  Arnfinn H. Steindal,      UiT The Arctic U. of Norway,  Norway      (parallel QM/MM, Polarizable embedding model)
  Casper Steinmann,         Univ. of Southern Denmark,    Denmark     (QFIT, Polarizable embedding model)
  K. O. Sylvester-Hvid,     University of Copenhagen,     Denmark     (MC-SCRF)
  Peter R. Taylor,          VLSCI/Univ. of Melbourne,     Australia   (Symmetry handling ABACUS, integral transformation)
  Andrew M. Teale,          University of Nottingham,     England     (DFT-AC, DFT-D)
  David P. Tew,             University of Bristol,        England     (CCSD(R12))
  Olav Vahtras,             KTH Stockholm,                Sweden      (triplet response, spin-orbit, ESR, TDDFT, open-shell DFT)
  Lucas Visscher,           Vrije Universiteit Amsterdam, Netherlands (Frozen density embedding model)
  David J. Wilson,          La Trobe University,          Australia   (DFT Hessian and DFT magnetizabilities)
  Hans Agren,               KTH Stockholm,                Sweden      (SIRIUS module, RESPONS, MC-SCRF solvation model)
 --------------------------------------------------------------------------------

     Date and time (Linux)  : Sat Jan 11 07:32:48 2020
     Host name              : Lab2-333-NPs                            

 * Work memory size             :  1024000000 =  7.629 gigabytes.

 * Directories for basis set searches:
   1) /home/lab333/dalton/build_2018_atlas
   2) /home/lab333/dalton/build_2018_atlas/basis


Compilation information
-----------------------

 Who compiled             | lab333
 Host                     | Lab2-333-NPs
 System                   | Linux-4.4.0-43-Microsoft
 CMake generator          | Unix Makefiles
 Processor                | x86_64
 64-bit integers          | OFF
 MPI                      | OFF
 Fortran compiler         | /usr/bin/gfortran
 Fortran compiler version | GNU Fortran (Ubuntu 7.3.0-27ubuntu1~18.04) 7.3.0
 C compiler               | /usr/bin/gcc
 C compiler version       | gcc (Ubuntu 7.3.0-27ubuntu1~18.04) 7.3.0
 C++ compiler             | /usr/bin/g++
 C++ compiler version     | g++ (Ubuntu 7.3.0-27ubuntu1~18.04) 7.3.0
 BLAS                     | /usr/lib/x86_64-linux-gnu/libf77blas.so;/usr/lib/x
                          | 86_64-linux-gnu/libcblas.so;/usr/lib/x86_64-linux-
                          | gnu/libatlas.so
 LAPACK                   | /usr/lib/x86_64-linux-gnu/libatlas.so;/usr/lib/x86
                          | _64-linux-gnu/atlas/liblapack.so
 Static linking           | OFF
 Last Git revision        | da625bf48c74028e805616daee31bc5d76b3a20d
 Git branch               | (HEAD detached at Dalton2018.1)
 Configuration time       | 2019-01-18 10:20:51.437510


   Content of the .dal input file
 ----------------------------------

**DALTON INPUT
.RUN RESPONSE
.DIRECT
**WAVE FUNCTIONS
.HF
.MP2
.MCSCF
*CONFIGURATION INPUT
.SPIN MULTIPLICITY
1
.SYMMETRY
1
.INACTIVE ORBITALS
15 10 2 0
.CAS SPACE
1 1 2 3
.ELECTRONS
10
*ORBITAL INPUT
.MOSTART
.HUCKEL
*OPTIMIZATION
.DETERMINANTS
.STATE
1
*CI VECTOR
.PLUS COMBINATIONS
**RESPONSE
*CUBIC
.DIPLEN
.BFREQ
1
0.0584
.CFREQ
1
-0.0584
.DFREQ
1
0.0584
**END OF DALTON INPUT


   Content of the .mol file
 ----------------------------

BASIS
aug-cc-pCVDZ
 nitrobenzene
 Generated by the Dalton Input File Plugin for Avogadro
Atomtypes=4 Angstrom Generators=2 X Y
Charge=6.0 Atoms=4
C        0.0000000000            0.0000000000           -0.0265759623
C       -1.2190534920            0.0000000000           -0.6979856948
C       -1.2105095870            0.0000000000           -2.0897394457
C        0.0000000000            0.0000000000           -2.7841484631
Charge=7.0 Atoms=1
N        0.0000000000            0.0000000000            1.4549291696
Charge=8.0 Atoms=1
O       0.5478330858265155            0.0            2.5503394826606645
Charge=1.0 Atoms=3
H       -2.1410602955            0.0000000000           -0.1327964319
H       -2.1492827751            0.0000000000           -2.6311811056
H        0.0000000000            0.0000000000           -3.8683953478


       *******************************************************************
       *********** Output from DALTON general input processing ***********
       *******************************************************************

 --------------------------------------------------------------------------------
   Overall default print level:    0
   Print level for DALTON.STAT:    1

    AO-direct calculation (in sections where implemented)
    HERMIT 1- and 2-electron integral sections will be executed
    "Old" integral transformation used (limited to max 255 basis functions)
    Wave function sections will be executed (SIRIUS module)
    Dynamic molecular response properties section will be executed (RESPONSE module)
 --------------------------------------------------------------------------------


   ****************************************************************************
   *************** Output of molecule and basis set information ***************
   ****************************************************************************


    The two title cards from your ".mol" input:
    ------------------------------------------------------------------------
 1:  nitrobenzene                                                           
 2:  Generated by the Dalton Input File Plugin for Avogadro                 
    ------------------------------------------------------------------------

  Coordinates are entered in Angstrom and converted to atomic units.
          - Conversion factor : 1 bohr = 0.52917721 A

  Atomic type no.    1
  --------------------
  Nuclear charge:   6.00000
  Number of symmetry independent centers:    4
  Number of basis sets to read;    2
  Basis set file used for this atomic type with Z =   6 :
     "/home/lab333/dalton/build_2018_atlas/basis/aug-cc-pCVDZ"

  Atomic type no.    2
  --------------------
  Nuclear charge:   7.00000
  Number of symmetry independent centers:    1
  Number of basis sets to read;    2
  Basis set file used for this atomic type with Z =   7 :
     "/home/lab333/dalton/build_2018_atlas/basis/aug-cc-pCVDZ"

  Atomic type no.    3
  --------------------
  Nuclear charge:   8.00000
  Number of symmetry independent centers:    1
  Number of basis sets to read;    2
  Basis set file used for this atomic type with Z =   8 :
     "/home/lab333/dalton/build_2018_atlas/basis/aug-cc-pCVDZ"

  Atomic type no.    4
  --------------------
  Nuclear charge:   1.00000
  Number of symmetry independent centers:    3
  Number of basis sets to read;    2
  Basis set file used for this atomic type with Z =   1 :
     "/home/lab333/dalton/build_2018_atlas/basis/aug-cc-pCVDZ"


                         SYMGRP: Point group information
                         -------------------------------

@    Point group: C2v

@  * The irrep name for each symmetry:    1: A1     2: B1     3: B2     4: A2 

   * The point group was generated by:

      Reflection in the yz-plane
      Reflection in the xz-plane

   * Group multiplication table

        |  E   C2z  Oxz  Oyz
   -----+--------------------
     E  |  E   C2z  Oxz  Oyz
    C2z | C2z   E   Oyz  Oxz
    Oxz | Oxz  Oyz   E   C2z
    Oyz | Oyz  Oxz  C2z   E 

   * Character table

        |  E   C2z  Oxz  Oyz
   -----+--------------------
    A1  |   1    1    1    1
    B1  |   1   -1    1   -1
    B2  |   1   -1   -1    1
    A2  |   1    1   -1   -1

   * Direct product table

        | A1   B1   B2   A2 
   -----+--------------------
    A1  | A1   B1   B2   A2 
    B1  | B1   A1   A2   B2 
    B2  | B2   A2   A1   B1 
    A2  | A2   B2   B1   A1 


                                 Isotopic Masses
                                 ---------------

                           C          12.000000
                           C   _1     12.000000
                           C   _2     12.000000
                           C   _1     12.000000
                           C   _2     12.000000
                           C          12.000000
                           N          14.003074
                           O   _1     15.994915
                           O   _2     15.994915
                           H   _1      1.007825
                           H   _2      1.007825
                           H   _1      1.007825
                           H   _2      1.007825
                           H           1.007825

                       Total mass:   123.032029 amu
                       Natural abundance:  92.716 %

 Center-of-mass coordinates (a.u.):    0.000000    0.000000   -0.125113


  Atoms and basis sets
  --------------------

  Number of atom types :    4
  Total number of atoms:   14

  Basis set used is "aug-cc-pCVDZ" from the basis set library.

  label    atoms   charge   prim   cont     basis
  ----------------------------------------------------------------------
  C           6    6.0000    39    27      [11s6p2d|5s4p2d]                                   
  N           1    7.0000    39    27      [11s6p2d|5s4p2d]                                   
  O           2    8.0000    39    27      [11s6p2d|5s4p2d]                                   
  H           5    1.0000    11     9      [5s2p|3s2p]                                        
  ----------------------------------------------------------------------
  total:     14   64.0000   406   288
  ----------------------------------------------------------------------
  Spherical harmonic basis used.

  Threshold for neglecting AO integrals:  1.00D-12


  Symmetry Coordinates
  --------------------

  Number of coordinates in each symmetry:    14   14    9    5


   Interatomic separations (in Angstrom):
   --------------------------------------

            C           C   _1      C   _2      C   _1      C   _2      C     
            ------      ------      ------      ------      ------      ------
 C     :    0.000000
 C   _1:    1.391719    0.000000
 C   _2:    1.391719    2.438107    0.000000
 C   _1:    2.392065    1.391780    2.799956    0.000000
 C   _2:    2.392065    2.799956    1.391780    2.421019    0.000000
 C     :    2.757573    2.416230    2.416230    1.395542    1.395542    0.000000
 N     :    1.481505    2.474093    2.474093    3.745665    3.745665    4.239078
 O   _1:    2.634505    3.697770    3.316949    4.962066    4.687160    5.362544
 O   _2:    2.634505    3.316949    3.697770    4.687160    4.962066    5.362544
 H   _1:    2.143694    1.081451    3.407316    2.166922    3.881063    3.407904
 H   _2:    2.143694    3.407316    1.081451    3.881063    2.166922    3.407904
 H   _1:    3.376890    2.145360    3.883675    1.083722    3.403140    2.154719
 H   _2:    3.376890    3.883675    2.145360    3.403140    1.083722    2.154719
 H     :    3.841819    3.396703    3.396703    2.151500    2.151500    1.084247

            N           O   _1      O   _2      H   _1      H   _2      H   _1
            ------      ------      ------      ------      ------      ------
 N     :    0.000000
 O   _1:    1.224763    0.000000
 O   _2:    1.224763    1.095666    0.000000
 H   _1:    2.665523    3.798601    3.120511    0.000000
 H   _2:    2.665523    3.120511    3.798601    4.282121    0.000000
 H   _1:    4.616894    5.841454    5.423357    2.498398    4.964773    0.000000
 H   _2:    4.616894    5.423357    5.841454    4.964773    2.498398    4.298566
 H     :    5.323325    6.442071    6.442071    4.305675    4.305675    2.479943

            H   _2      H     
            ------      ------
 H   _2:    0.000000
 H     :    2.479943    0.000000


  Max    interatomic separation is    6.4421 Angstrom (   12.1737 Bohr)
  between atoms   14 and    8, "H     " and "O   _1".

  Min HX interatomic separation is    1.0815 Angstrom (    2.0436 Bohr)

  Min YX interatomic separation is    1.0957 Angstrom (    2.0705 Bohr)


  Bond distances (Angstrom):
  --------------------------

                  atom 1     atom 2       distance
                  ------     ------       --------
  bond distance:  C   _1     C            1.391719
  bond distance:  C   _2     C            1.391719
  bond distance:  C   _1     C   _1       1.391780
  bond distance:  C   _2     C   _2       1.391780
  bond distance:  C          C   _1       1.395542
  bond distance:  C          C   _2       1.395542
  bond distance:  N          C            1.481505
  bond distance:  O   _1     N            1.224763
  bond distance:  O   _2     N            1.224763
  bond distance:  O   _2     O   _1       1.095666
  bond distance:  H   _1     C   _1       1.081451
  bond distance:  H   _2     C   _2       1.081451
  bond distance:  H   _1     C   _1       1.083722
  bond distance:  H   _2     C   _2       1.083722
  bond distance:  H          C            1.084247


  Bond angles (degrees):
  ----------------------

                  atom 1     atom 2     atom 3         angle
                  ------     ------     ------         -----
  bond angle:     C   _1     C          C   _2       122.311
  bond angle:     C   _1     C          N            118.844
  bond angle:     C   _2     C          N            118.844
  bond angle:     C          C   _1     C   _1       118.493
  bond angle:     C          C   _1     H   _1       119.647
  bond angle:     C   _1     C   _1     H   _1       121.860
  bond angle:     C          C   _2     C   _2       118.493
  bond angle:     C          C   _2     H   _2       119.647
  bond angle:     C   _2     C   _2     H   _2       121.860
  bond angle:     C   _1     C   _1     C            120.192
  bond angle:     C   _1     C   _1     H   _1       119.623
  bond angle:     C          C   _1     H   _1       120.185
  bond angle:     C   _2     C   _2     C            120.192
  bond angle:     C   _2     C   _2     H   _2       119.623
  bond angle:     C          C   _2     H   _2       120.185
  bond angle:     C   _1     C          C   _2       120.319
  bond angle:     C   _1     C          H            119.841
  bond angle:     C   _2     C          H            119.841
  bond angle:     C          N          O   _1       153.430
  bond angle:     C          N          O   _2       153.430
  bond angle:     O   _1     N          O   _2        53.141
  bond angle:     N          O   _1     O   _2        63.430
  bond angle:     N          O   _2     O   _1        63.430




 Principal moments of inertia (u*A**2) and principal axes
 --------------------------------------------------------

   IA      98.986167          0.000000    0.000000    1.000000
   IB     475.770585          1.000000    0.000000    0.000000
   IC     574.756752          0.000000    1.000000    0.000000


 Rotational constants
 --------------------

@    The molecule is planar.

               A                   B                   C

           5105.5519           1062.2326            879.2920 MHz
            0.170303            0.035432            0.029330 cm-1


@  Nuclear repulsion energy :  416.970422364670 Hartree


  Symmetry Orbitals
  -----------------

  Number of orbitals in each symmetry:         115   91   48   34


  Symmetry  A1 ( 1)

    1     C        1s         1
    2     C        1s         2
    3     C        1s         3
    4     C        1s         4
    5     C        1s         5
    6     C        2pz        8
    7     C        2pz       11
    8     C        2pz       14
    9     C        2pz       17
   10     C        3d0       20
   11     C        3d2+      22
   12     C        3d0       25
   13     C        3d2+      27
   14     C        1s        28 +   29
   15     C        1s        30 +   31
   16     C        1s        32 +   33
   17     C        1s        34 +   35
   18     C        1s        36 +   37
   19     C        2px       38 -   39
   20     C        2pz       42 +   43
   21     C        2px       44 -   45
   22     C        2pz       48 +   49
   23     C        2px       50 -   51
   24     C        2pz       54 +   55
   25     C        2px       56 -   57
   26     C        2pz       60 +   61
   27     C        3d0       66 +   67
   28     C        3d1+      68 -   69
   29     C        3d2+      70 +   71
   30     C        3d0       76 +   77
   31     C        3d1+      78 -   79
   32     C        3d2+      80 +   81
   33     C        1s        82 +   83
   34     C        1s        84 +   85
   35     C        1s        86 +   87
   36     C        1s        88 +   89
   37     C        1s        90 +   91
   38     C        2px       92 -   93
   39     C        2pz       96 +   97
   40     C        2px       98 -   99
   41     C        2pz      102 +  103
   42     C        2px      104 -  105
   43     C        2pz      108 +  109
   44     C        2px      110 -  111
   45     C        2pz      114 +  115
   46     C        3d0      120 +  121
   47     C        3d1+     122 -  123
   48     C        3d2+     124 +  125
   49     C        3d0      130 +  131
   50     C        3d1+     132 -  133
   51     C        3d2+     134 +  135
   52     C        1s       136
   53     C        1s       137
   54     C        1s       138
   55     C        1s       139
   56     C        1s       140
   57     C        2pz      143
   58     C        2pz      146
   59     C        2pz      149
   60     C        2pz      152
   61     C        3d0      155
   62     C        3d2+     157
   63     C        3d0      160
   64     C        3d2+     162
   65     N        1s       163
   66     N        1s       164
   67     N        1s       165
   68     N        1s       166
   69     N        1s       167
   70     N        2pz      170
   71     N        2pz      173
   72     N        2pz      176
   73     N        2pz      179
   74     N        3d0      182
   75     N        3d2+     184
   76     N        3d0      187
   77     N        3d2+     189
   78     O        1s       190 +  191
   79     O        1s       192 +  193
   80     O        1s       194 +  195
   81     O        1s       196 +  197
   82     O        1s       198 +  199
   83     O        2px      200 -  201
   84     O        2pz      204 +  205
   85     O        2px      206 -  207
   86     O        2pz      210 +  211
   87     O        2px      212 -  213
   88     O        2pz      216 +  217
   89     O        2px      218 -  219
   90     O        2pz      222 +  223
   91     O        3d0      228 +  229
   92     O        3d1+     230 -  231
   93     O        3d2+     232 +  233
   94     O        3d0      238 +  239
   95     O        3d1+     240 -  241
   96     O        3d2+     242 +  243
   97     H        1s       244 +  245
   98     H        1s       246 +  247
   99     H        1s       248 +  249
  100     H        2px      250 -  251
  101     H        2pz      254 +  255
  102     H        2px      256 -  257
  103     H        2pz      260 +  261
  104     H        1s       262 +  263
  105     H        1s       264 +  265
  106     H        1s       266 +  267
  107     H        2px      268 -  269
  108     H        2pz      272 +  273
  109     H        2px      274 -  275
  110     H        2pz      278 +  279
  111     H        1s       280
  112     H        1s       281
  113     H        1s       282
  114     H        2pz      285
  115     H        2pz      288


  Symmetry  B1 ( 2)

  116     C        2px        6
  117     C        2px        9
  118     C        2px       12
  119     C        2px       15
  120     C        3d1+      21
  121     C        3d1+      26
  122     C        1s        28 -   29
  123     C        1s        30 -   31
  124     C        1s        32 -   33
  125     C        1s        34 -   35
  126     C        1s        36 -   37
  127     C        2px       38 +   39
  128     C        2pz       42 -   43
  129     C        2px       44 +   45
  130     C        2pz       48 -   49
  131     C        2px       50 +   51
  132     C        2pz       54 -   55
  133     C        2px       56 +   57
  134     C        2pz       60 -   61
  135     C        3d0       66 -   67
  136     C        3d1+      68 +   69
  137     C        3d2+      70 -   71
  138     C        3d0       76 -   77
  139     C        3d1+      78 +   79
  140     C        3d2+      80 -   81
  141     C        1s        82 -   83
  142     C        1s        84 -   85
  143     C        1s        86 -   87
  144     C        1s        88 -   89
  145     C        1s        90 -   91
  146     C        2px       92 +   93
  147     C        2pz       96 -   97
  148     C        2px       98 +   99
  149     C        2pz      102 -  103
  150     C        2px      104 +  105
  151     C        2pz      108 -  109
  152     C        2px      110 +  111
  153     C        2pz      114 -  115
  154     C        3d0      120 -  121
  155     C        3d1+     122 +  123
  156     C        3d2+     124 -  125
  157     C        3d0      130 -  131
  158     C        3d1+     132 +  133
  159     C        3d2+     134 -  135
  160     C        2px      141
  161     C        2px      144
  162     C        2px      147
  163     C        2px      150
  164     C        3d1+     156
  165     C        3d1+     161
  166     N        2px      168
  167     N        2px      171
  168     N        2px      174
  169     N        2px      177
  170     N        3d1+     183
  171     N        3d1+     188
  172     O        1s       190 -  191
  173     O        1s       192 -  193
  174     O        1s       194 -  195
  175     O        1s       196 -  197
  176     O        1s       198 -  199
  177     O        2px      200 +  201
  178     O        2pz      204 -  205
  179     O        2px      206 +  207
  180     O        2pz      210 -  211
  181     O        2px      212 +  213
  182     O        2pz      216 -  217
  183     O        2px      218 +  219
  184     O        2pz      222 -  223
  185     O        3d0      228 -  229
  186     O        3d1+     230 +  231
  187     O        3d2+     232 -  233
  188     O        3d0      238 -  239
  189     O        3d1+     240 +  241
  190     O        3d2+     242 -  243
  191     H        1s       244 -  245
  192     H        1s       246 -  247
  193     H        1s       248 -  249
  194     H        2px      250 +  251
  195     H        2pz      254 -  255
  196     H        2px      256 +  257
  197     H        2pz      260 -  261
  198     H        1s       262 -  263
  199     H        1s       264 -  265
  200     H        1s       266 -  267
  201     H        2px      268 +  269
  202     H        2pz      272 -  273
  203     H        2px      274 +  275
  204     H        2pz      278 -  279
  205     H        2px      283
  206     H        2px      286


  Symmetry  B2 ( 3)

  207     C        2py        7
  208     C        2py       10
  209     C        2py       13
  210     C        2py       16
  211     C        3d1-      19
  212     C        3d1-      24
  213     C        2py       40 +   41
  214     C        2py       46 +   47
  215     C        2py       52 +   53
  216     C        2py       58 +   59
  217     C        3d2-      62 -   63
  218     C        3d1-      64 +   65
  219     C        3d2-      72 -   73
  220     C        3d1-      74 +   75
  221     C        2py       94 +   95
  222     C        2py      100 +  101
  223     C        2py      106 +  107
  224     C        2py      112 +  113
  225     C        3d2-     116 -  117
  226     C        3d1-     118 +  119
  227     C        3d2-     126 -  127
  228     C        3d1-     128 +  129
  229     C        2py      142
  230     C        2py      145
  231     C        2py      148
  232     C        2py      151
  233     C        3d1-     154
  234     C        3d1-     159
  235     N        2py      169
  236     N        2py      172
  237     N        2py      175
  238     N        2py      178
  239     N        3d1-     181
  240     N        3d1-     186
  241     O        2py      202 +  203
  242     O        2py      208 +  209
  243     O        2py      214 +  215
  244     O        2py      220 +  221
  245     O        3d2-     224 -  225
  246     O        3d1-     226 +  227
  247     O        3d2-     234 -  235
  248     O        3d1-     236 +  237
  249     H        2py      252 +  253
  250     H        2py      258 +  259
  251     H        2py      270 +  271
  252     H        2py      276 +  277
  253     H        2py      284
  254     H        2py      287


  Symmetry  A2 ( 4)

  255     C        3d2-      18
  256     C        3d2-      23
  257     C        2py       40 -   41
  258     C        2py       46 -   47
  259     C        2py       52 -   53
  260     C        2py       58 -   59
  261     C        3d2-      62 +   63
  262     C        3d1-      64 -   65
  263     C        3d2-      72 +   73
  264     C        3d1-      74 -   75
  265     C        2py       94 -   95
  266     C        2py      100 -  101
  267     C        2py      106 -  107
  268     C        2py      112 -  113
  269     C        3d2-     116 +  117
  270     C        3d1-     118 -  119
  271     C        3d2-     126 +  127
  272     C        3d1-     128 -  129
  273     C        3d2-     153
  274     C        3d2-     158
  275     N        3d2-     180
  276     N        3d2-     185
  277     O        2py      202 -  203
  278     O        2py      208 -  209
  279     O        2py      214 -  215
  280     O        2py      220 -  221
  281     O        3d2-     224 +  225
  282     O        3d1-     226 -  227
  283     O        3d2-     234 +  235
  284     O        3d1-     236 -  237
  285     H        2py      252 -  253
  286     H        2py      258 -  259
  287     H        2py      270 -  271
  288     H        2py      276 -  277

  Symmetries of electric field:  B1 (2)  B2 (3)  A1 (1)

  Symmetries of magnetic field:  B2 (3)  B1 (2)  A2 (4)


                     .---------------------------------------.
                     | Starting in Integral Section (HERMIT) |
                     `---------------------------------------'



 ***************************************************************************************
 ****************** Output from **INTEGRALS input processing (HERMIT) ******************
 ***************************************************************************************


 - Using defaults, no **INTEGRALS input found

 Default print level:        1

 Calculation of one-electron Hamiltonian integrals.

 Center of mass  (bohr):      0.000000000000      0.000000000000     -0.125112859151
 Operator center (bohr):      0.000000000000      0.000000000000      0.000000000000
 Gauge origin    (bohr):      0.000000000000      0.000000000000      0.000000000000
 Dipole origin   (bohr):      0.000000000000      0.000000000000      0.000000000000


     ************************************************************************
     ************************** Output from HERINT **************************
     ************************************************************************



                      Nuclear contribution to dipole moments
                      --------------------------------------

                 au               Debye          C m (/(10**-30)

      z    -16.48495546       -41.90057468      -139.76527281


  Time used in GABGEN     is       0.11 seconds
  Total CPU  time used in HERMIT:   0.39 seconds
  Total wall time used in HERMIT:   0.40 seconds


                        .----------------------------------.
                        | End of Integral Section (HERMIT) |
                        `----------------------------------'



                   .--------------------------------------------.
                   | Starting in Wave Function Section (SIRIUS) |
                   `--------------------------------------------'


 *** Output from Huckel module :

     Using EWMO model:          F
     Using EHT  model:          T
     Number of Huckel orbitals each symmetry:   24   17    6    3

 Huckel EHT eigenvalues for symmetry :  1
          -20.731592     -15.706221     -11.414841     -11.394401     -11.376675
          -11.362577      -1.970053      -1.578329      -1.274926      -1.016643
           -0.834908      -0.740977      -0.636090      -0.608775      -0.543091
           -0.439218      -0.312812      -0.237662      -0.219941      -0.213409
           -0.205731      -0.178506      -0.166806      -0.160388

 Huckel EHT eigenvalues for symmetry :  2
          -20.706237     -11.396450     -11.377841      -1.237316      -1.133718
           -0.881610      -0.578711      -0.533721      -0.481922      -0.416696
           -0.340187      -0.329974      -0.213866      -0.202818      -0.176270
           -0.165473      -0.163320

 Huckel EHT eigenvalues for symmetry :  3
           -0.850973      -0.700337      -0.487897      -0.393480      -0.281601
           -0.236530

 Huckel EHT eigenvalues for symmetry :  4
           -0.482277      -0.460446      -0.288958

 **********************************************************************
 *SIRIUS* a direct, restricted step, second order MCSCF program       *
 **********************************************************************

 
     Date and time (Linux)  : Sat Jan 11 07:32:48 2020
     Host name              : Lab2-333-NPs                            

 Title lines from ".mol" input file:
      nitrobenzene                                                           
      Generated by the Dalton Input File Plugin for Avogadro                 

 Print level on unit LUPRI =   2 is   0
 Print level on unit LUW4  =   2 is   5

@    MC-SCF optimization.

@    Multi-configurational response calculation.
@              Type: complete active space calculation (CAS).

@    This is a combination run starting with
@              a restricted, closed shell Hartree-Fock calculation
@              an MP2 calculation

 Fock matrices are calculated directly without use of integrals on disk.

 Initial molecular orbitals are obtained according to
 ".MOSTART EHT   " input option

     Wave function specification
     ============================
@    Wave function type        --- MC-SCF ---
@    Number of closed shell electrons          54
@    Number of electrons in active shells      10
@    Total charge of the molecule               0

@    Spin multiplicity and 2 M_S                1         0
@    Total number of symmetries                 4 (point group: C2v)
@    Reference state symmetry                   1 (irrep name : A1 )

     Orbital specifications
     ======================
@    Abelian symmetry species          All |    1    2    3    4
@                                          |  A1   B1   B2   A2 
                                       --- |  ---  ---  ---  ---
@    Inactive orbitals                  27 |   15   10    2    0
@    Active orbitals                     7 |    1    1    2    3
@    Secondary orbitals                254 |   99   80   44   31
@    Total number of orbitals          288 |  115   91   48   34
@    Number of basis functions         288 |  115   91   48   34

      ** Automatic occupation of RHF orbitals **

      -- Initial occupation of symmetries is determined from extended Huckel guess.           
      -- Initial occupation of symmetries is :
@    Occupied SCF orbitals              32 |   16   10    4    2

     Optimization information
     ========================
@    Number of determinants                 115
@    Number of orbital rotations           2762
     ------------------------------------------
@    Total number of variables             2877

     Maximum number of macro iterations      25
     Maximum number of micro iterations     600
     Threshold for MCSCF gradient      1.00D-05
     Number of initial trial vectors          1
     Number of initial CI iterations          3
     Number of simultaneous trial vectors     1

@    This calculation converges to the lowest state for the specified symmetry and spin species.

     Maximum number of NEO/NR iterations  24

    INFORMATION: Switched to "new" integral transformation (from 1988 ;-) )
    because more than 255 basis functions.


 ***********************************************
 ***** DIIS acceleration of SCF iterations *****
 ***********************************************

 C1-DIIS algorithm; max error vectors =    8

 Automatic occupation of symmetries with  64 electrons.

 Iter     Total energy    Error norm  Delta(E)    SCF occupation
 -----------------------------------------------------------------------------
   1  Screening settings (-IFTHRS, JTDIIS, DIFDEN, times)   -8    1    T  2.61D+01  2.61D+01
@  1  -432.125423193       6.30D+00  -4.32D+02    16  10   4   2
      Virial theorem: -V/T =      1.998439
@    MULPOP   C       0.48; C   _1  0.10; C   _2  0.10; C   _1  0.26; C   _2  0.26; C       0.19; N       0.05; O   _1 -0.26; O   _2 -0.26; H   _1 -0.19; 
@             H   _2 -0.19; H   _1 -0.18; H   _2 -0.18; H      -0.18; 
   1  Level shift: doubly occupied orbital energies shifted by -2.00D-01
 -----------------------------------------------------------------------------
   2  Screening settings (-IFTHRS, JTDIIS, DIFDEN, times)   -8    2    T  2.61D+01  2.61D+01
@  2  -433.736438885       1.42D+00  -1.61D+00    16  10   4   2
      Virial theorem: -V/T =      1.992982
@    MULPOP   C       1.63; C   _1  0.04; C   _2  0.04; C   _1  0.41; C   _2  0.41; C       0.39; N       0.32; O   _1 -0.54; O   _2 -0.54; H   _1 -0.46; 
@             H   _2 -0.46; H   _1 -0.41; H   _2 -0.41; H      -0.42; 
   2  Level shift: doubly occupied orbital energies shifted by -5.00D-02
 -----------------------------------------------------------------------------
   3  Screening settings (-IFTHRS, JTDIIS, DIFDEN, times)   -8    3    T  2.60D+01  2.60D+01
@  3  -433.849841937       4.20D-01  -1.13D-01    16  10   4   2
      Virial theorem: -V/T =      1.998385
@    MULPOP   C       2.07; C   _1 -0.05; C   _2 -0.05; C   _1  0.56; C   _2  0.56; C       0.32; N       0.21; O   _1 -0.62; O   _2 -0.62; H   _1 -0.51; 
@             H   _2 -0.51; H   _1 -0.46; H   _2 -0.46; H      -0.47; 
   3  Level shift: doubly occupied orbital energies shifted by -2.50D-02
 -----------------------------------------------------------------------------
   4  Screening settings (-IFTHRS, JTDIIS, DIFDEN, times)   -8    4    T  2.59D+01  2.59D+01
@  4  -433.862060487       1.43D-01  -1.22D-02    16  10   4   2
      Virial theorem: -V/T =      1.997425
@    MULPOP   C       2.08; C   _1 -0.08; C   _2 -0.08; C   _1  0.58; C   _2  0.58; C       0.32; N       0.15; O   _1 -0.60; O   _2 -0.60; H   _1 -0.50; 
@             H   _2 -0.50; H   _1 -0.45; H   _2 -0.45; H      -0.46; 
   4  Level shift: doubly occupied orbital energies shifted by -1.25D-02
 -----------------------------------------------------------------------------
   5  Screening settings (-IFTHRS, JTDIIS, DIFDEN, times)  -10    5    F  2.65D+01  2.65D+01
@  5  -433.863341359       5.09D-02  -1.28D-03    16  10   4   2
      Virial theorem: -V/T =      1.997167
@    MULPOP   C       2.11; C   _1 -0.09; C   _2 -0.09; C   _1  0.58; C   _2  0.58; C       0.31; N       0.15; O   _1 -0.61; O   _2 -0.61; H   _1 -0.49; 
@             H   _2 -0.49; H   _1 -0.44; H   _2 -0.44; H      -0.46; 
 -----------------------------------------------------------------------------
   6  Screening settings (-IFTHRS, JTDIIS, DIFDEN, times)  -10    6    T  2.62D+01  2.62D+01
@  6  -433.863519553       9.85D-03  -1.78D-04    16  10   4   2
      Virial theorem: -V/T =      1.997291
@    MULPOP   C       2.11; C   _1 -0.09; C   _2 -0.09; C   _1  0.58; C   _2  0.58; C       0.31; N       0.14; O   _1 -0.61; O   _2 -0.61; H   _1 -0.49; 
@             H   _2 -0.49; H   _1 -0.44; H   _2 -0.44; H      -0.46; 
 -----------------------------------------------------------------------------
   7  Screening settings (-IFTHRS, JTDIIS, DIFDEN, times)  -13    7    F  2.65D+01  2.66D+01
@  7  -433.863529914       2.59D-03  -1.04D-05    16  10   4   2
      Virial theorem: -V/T =      1.997280
@    MULPOP   C       2.11; C   _1 -0.09; C   _2 -0.09; C   _1  0.58; C   _2  0.58; C       0.31; N       0.14; O   _1 -0.60; O   _2 -0.60; H   _1 -0.49; 
@             H   _2 -0.49; H   _1 -0.44; H   _2 -0.44; H      -0.45; 
 -----------------------------------------------------------------------------
   8  Screening settings (-IFTHRS, JTDIIS, DIFDEN, times)  -13    8    T  2.64D+01  2.64D+01
@  8  -433.863530917       1.23D-03  -1.00D-06    16  10   4   2
      Virial theorem: -V/T =      1.997275
@    MULPOP   C       2.11; C   _1 -0.09; C   _2 -0.09; C   _1  0.58; C   _2  0.58; C       0.31; N       0.14; O   _1 -0.60; O   _2 -0.60; H   _1 -0.49; 
@             H   _2 -0.49; H   _1 -0.44; H   _2 -0.44; H      -0.45; 
 -----------------------------------------------------------------------------
   9  Screening settings (-IFTHRS, JTDIIS, DIFDEN, times)  -13    9    T  2.63D+01  2.63D+01
@  9  -433.863531188       4.78D-04  -2.71D-07    16  10   4   2
      Virial theorem: -V/T =      1.997277
@    MULPOP   C       2.11; C   _1 -0.09; C   _2 -0.09; C   _1  0.58; C   _2  0.58; C       0.31; N       0.14; O   _1 -0.60; O   _2 -0.60; H   _1 -0.49; 
@             H   _2 -0.49; H   _1 -0.44; H   _2 -0.44; H      -0.45; 
 -----------------------------------------------------------------------------
  10  Screening settings (-IFTHRS, JTDIIS, DIFDEN, times)  -13   10    T  2.63D+01  2.63D+01
@ 10  -433.863531276       1.91D-04  -8.83D-08    16  10   4   2
      Virial theorem: -V/T =      1.997277
@    MULPOP   C       2.11; C   _1 -0.09; C   _2 -0.09; C   _1  0.58; C   _2  0.58; C       0.31; N       0.14; O   _1 -0.60; O   _2 -0.60; H   _1 -0.49; 
@             H   _2 -0.49; H   _1 -0.44; H   _2 -0.44; H      -0.45; 
 -----------------------------------------------------------------------------
  11  Screening settings (-IFTHRS, JTDIIS, DIFDEN, times)  -13   11    T  2.62D+01  2.63D+01
@ 11  -433.863531291       8.16D-05  -1.41D-08    16  10   4   2
      Virial theorem: -V/T =      1.997277
@    MULPOP   C       2.11; C   _1 -0.09; C   _2 -0.09; C   _1  0.58; C   _2  0.58; C       0.31; N       0.14; O   _1 -0.60; O   _2 -0.60; H   _1 -0.49; 
@             H   _2 -0.49; H   _1 -0.44; H   _2 -0.44; H      -0.45; 
 -----------------------------------------------------------------------------
  12  Screening settings (-IFTHRS, JTDIIS, DIFDEN, times)  -13   12    T  2.62D+01  2.62D+01
@ 12  -433.863531292       2.91D-05  -1.50D-09    16  10   4   2
      Virial theorem: -V/T =      1.997277
@    MULPOP   C       2.11; C   _1 -0.09; C   _2 -0.09; C   _1  0.58; C   _2  0.58; C       0.31; N       0.14; O   _1 -0.60; O   _2 -0.60; H   _1 -0.49; 
@             H   _2 -0.49; H   _1 -0.44; H   _2 -0.44; H      -0.45; 
 -----------------------------------------------------------------------------
  13  Screening settings (-IFTHRS, JTDIIS, DIFDEN, times)  -13   13    T  2.61D+01  2.62D+01
@ 13  -433.863531292       6.53D-06  -1.81D-10    16  10   4   2
      Virial theorem: -V/T =      1.997277
@    MULPOP   C       2.11; C   _1 -0.09; C   _2 -0.09; C   _1  0.58; C   _2  0.58; C       0.31; N       0.14; O   _1 -0.60; O   _2 -0.60; H   _1 -0.49; 
@             H   _2 -0.49; H   _1 -0.44; H   _2 -0.44; H      -0.45; 
 -----------------------------------------------------------------------------
  14  Screening settings (-IFTHRS, JTDIIS, DIFDEN, times)  -13   14    T  2.60D+01  2.60D+01
@ 14  -433.863531292       2.96D-06  -1.14D-13    16  10   4   2
      Virial theorem: -V/T =      1.997277
@    MULPOP   C       2.11; C   _1 -0.09; C   _2 -0.09; C   _1  0.58; C   _2  0.58; C       0.31; N       0.14; O   _1 -0.60; O   _2 -0.60; H   _1 -0.49; 
@             H   _2 -0.49; H   _1 -0.44; H   _2 -0.44; H      -0.45; 
 -----------------------------------------------------------------------------
  15  Screening settings (-IFTHRS, JTDIIS, DIFDEN, times)  -13   15    T  2.60D+01  2.60D+01
@ 15  -433.863531292       8.46D-07  -9.32D-12    16  10   4   2

@ *** DIIS converged in  15 iterations !
@     Converged SCF energy, gradient:   -433.863531292279    8.46D-07
    - total time used in SIRFCK :              0.00 seconds

 --- Writing SIRIFC interface file

 CPU and wall time for SCF :     393.453     393.568


 ----- Output from SIRIUS MP2 module -----

 Reference: H.J.Aa.Jensen, P.Jorgensen, H.Agren, and J.Olsen,
            J. Chem. Phys. 88, 3834 (1988); 89, 5354 (1988)

 Checking that the closed shell orbitals are canonical Hartree-Fock orbitals

    Number of electrons  :   64
    Closed shell orbitals:   16   10    4    2

 Generating Fock matrix

 Hartree-Fock electronic energy:        -850.833953656936
 Hartree-Fock total      energy:        -433.863531292266

 Hartree-Fock orbital energies, symmetry 1 ( A1 ),   16 occupied SCF orbitals

       -20.68362458   -15.66695341   -11.35213113   -11.26458412   -11.25840802
       -11.24689447    -1.97416241    -1.21102935    -1.14368535    -1.03134666
        -0.88200145    -0.79259635    -0.74139072    -0.69047304    -0.63020538
        -0.53258261     0.03305830     0.04554995     0.06348911     0.10828827
         0.12408899     0.14125058     0.15462067     0.15736594     0.17001303
         0.18309206     0.20475537     0.25238610     0.26746362     0.28921980
         0.32038877     0.33410239     0.34399126     0.35936712     0.36424371
         0.39190765     0.40977922     0.42387228     0.45727884     0.47582755
         0.51140159     0.57035315     0.57558573     0.61350254     0.62661391
         0.66780473     0.67569625     0.68705804     0.72004661     0.76069395
         0.78961599     0.84292278     0.90219448     0.90344844     0.95894254
         0.99059909     1.01876530     1.06697661     1.08045139     1.09146444
         1.20265316     1.29100584     1.33903144     1.41546845     1.49949408
         1.53973348     1.55276512     1.59369727     1.60614046     1.63309923
         1.70455764     1.73471690     1.76807564     1.79274883     1.87163487
         1.95972531     1.99232701     2.03397277     2.03859083     2.20945597
         2.23743654     2.30420071     2.38073574     2.41143265     2.43919242
         2.51969709     2.57301855     2.69366078     2.75170699     2.83965815
         2.91370354     2.97139949     3.05448869     3.16573139     3.20156871
         3.32903643     3.59089202     3.82027169     3.97465843     4.17637003
        19.81961227    20.32632318    20.47092970    20.64010516    23.37023512
        23.43798798    23.48540867    23.80918009    23.91020882    24.12929591
        27.36704671    31.74673019    35.79878402    39.67069409    40.06563351

 Hartree-Fock orbital energies, symmetry 2 ( B1 ),   10 occupied SCF orbitals

       -20.68238437   -11.26455987   -11.25842177    -1.16038023    -1.03973579
        -0.85394902    -0.65721271    -0.61073997    -0.58288781    -0.51776939
         0.03885828     0.05733569     0.13324488     0.13736368     0.15216253
         0.16117819     0.18095257     0.20724875     0.25847077     0.29496115
         0.30390967     0.31718330     0.34560132     0.36184811     0.37652249
         0.39679847     0.41436356     0.43321552     0.50903038     0.55776189
         0.58153076     0.62387191     0.65470935     0.67526260     0.69430193
         0.72460159     0.76824366     0.78457324     0.83383850     0.85470972
         0.88738888     0.90337463     1.03401331     1.16905657     1.24582869
         1.31435296     1.36028206     1.39694174     1.44604384     1.50566880
         1.51703398     1.60291248     1.61194207     1.65670489     1.72151621
         1.76799537     1.78690697     1.82575117     1.87119142     1.93563040
         2.05575544     2.13808593     2.17517082     2.31877367     2.33362935
         2.38793056     2.45473715     2.53886032     2.64528989     2.73230564
         2.90990782     2.94551566     3.16616021     3.33491555     3.36568905
         3.43094839     3.98399865     4.38533335     4.69961837    20.29671122
        20.47991850    22.87823610    23.33116520    23.39517619    23.96230858
        24.13279928    24.31954808    31.32563969    35.85764879    39.98235760
        40.72982130

 Hartree-Fock orbital energies, symmetry 3 ( B2 ),    4 occupied SCF orbitals

        -0.90376381    -0.54330642    -0.43288780    -0.30335256     0.10415365
         0.11987062     0.13893407     0.18519379     0.19028505     0.23274715
         0.29925294     0.34005149     0.39119655     0.46811352     0.54704306
         0.59958964     0.67251448     0.71765541     0.79531698     0.87751370
         0.91290120     0.93157674     0.95608102     1.05143728     1.09454123
         1.14547500     1.17917180     1.48010320     1.52626108     1.62951196
         1.68189395     1.71728774     1.85250138     1.94302725     2.09747935
         2.11506537     2.18054541     2.31086688     2.56957572     2.69445615
         3.12307170     3.78580686    22.56528058    22.71402250    22.84304340
        23.04136428    30.75749851    39.44914158

 Hartree-Fock orbital energies, symmetry 4 ( A2 ),    2 occupied SCF orbitals

        -0.41997661    -0.35881585     0.09399257     0.13711859     0.19103503
         0.28323871     0.41872261     0.49499877     0.55132155     0.65913952
         0.74502272     0.88929539     0.90973042     0.94781681     1.04085089
         1.08136472     1.23023341     1.29882027     1.44597300     1.60613383
         1.69178989     1.70254777     1.87012704     1.88770074     2.11494779
         2.18988991     2.36122943     2.54119686     2.62998981     3.84039199
         4.21891645    22.70900266    22.87803539    39.41867600

    E(LUMO) :     0.03305830   (in symmetry 1)
  - E(HOMO) :    -0.30335256   (in symmetry 3)
  --------------------------
    gap     :     0.33641086

---> (Re)generating AOTWOINT


     ************************************************************************
     ************************** Output from HERINT **************************
     ************************************************************************


 Threshold for neglecting two-electron integrals:  1.00D-12
 HERMIT - Number of two-electron integrals written:   198583924 ( 22.9% )
 HERMIT - Megabytes written:                           3031.420

  Time used in TWOINT     is      36.28 seconds

 2-el. integral transformation level 5: Total CPU and WALL times (sec)     387.484     389.157

 MP2 move   0.902427 electrons to unoccupied HF orbitals


@   Hartree-Fock total energy   :          -433.8635312923
@   + MP2 contribution          :            -1.6637412669
@   = MP2 second order energy   :          -435.5272725591

 Natural orbital occupation numbers, symmetry 1 (irrep A1 )
 Sum =    31.98576343; RHF =    32.00000000; Difference =    -0.01423657

         1.99928460     1.99905988     1.99876110     1.99875765     1.99875204
         1.99874848     1.98943289     1.98421013     1.97978822     1.97435492
         1.96974429     1.96631224     1.96480503     1.96214867     1.95553227
         1.94849121     0.03778762     0.02573755     0.02425312     0.02236061
         0.01899140     0.01732768     0.01654243     0.01358589     0.01335407
         0.01229869     0.00998189     0.00891456     0.00832969     0.00770171
         0.00675966     0.00643542     0.00469208     0.00434070     0.00337888
         0.00298960     0.00287910     0.00259118     0.00236684     0.00205002
         0.00171130     0.00168976     0.00147901     0.00129337     0.00127720
         0.00118364     0.00106774     0.00095858     0.00073600     0.00065657
         0.00061788     0.00051079     0.00048713     0.00044594     0.00042513
         0.00041451     0.00039868     0.00037419     0.00035509     0.00034710
         0.00033039     0.00032529     0.00031518     0.00030636     0.00028110
         0.00026261     0.00023302     0.00022429     0.00022024     0.00019789
         0.00019358     0.00018351     0.00017699     0.00017313     0.00016760
         0.00016033     0.00015423     0.00014373     0.00013793     0.00013601
         0.00013271     0.00012407     0.00011752     0.00010483     0.00010118
         0.00009281     0.00007833     0.00006553     0.00005878     0.00005185
         0.00004521     0.00003611     0.00003347     0.00002543     0.00001717
         0.00001514     0.00001370     0.00001254     0.00001074     0.00000965
         0.00000881     0.00000746     0.00000668     0.00000371     0.00000231
         0.00000122     0.00000087     0.00000076     0.00000050     0.00000029
         0.00000016     0.00000008    -0.00000008    -0.00000072    -0.00000246

 Natural orbital occupation numbers, symmetry 2 (irrep B1 )
 Sum =    20.00035415; RHF =    20.00000000; Difference =     0.00035415

         1.99927899     1.99875753     1.99874976     1.98169076     1.97999913
         1.97256859     1.96084944     1.95557152     1.95426861     1.94652565
         0.04465176     0.02620439     0.02492681     0.02308968     0.01701689
         0.01640695     0.01574031     0.01189552     0.00962017     0.00911037
         0.00812306     0.00560696     0.00533064     0.00351167     0.00321801
         0.00306357     0.00250848     0.00217085     0.00207442     0.00164477
         0.00161870     0.00142076     0.00133895     0.00130473     0.00104510
         0.00099162     0.00068101     0.00064310     0.00054346     0.00045702
         0.00042511     0.00040347     0.00036911     0.00033884     0.00032937
         0.00029846     0.00028988     0.00027272     0.00025136     0.00021939
         0.00020884     0.00019903     0.00018838     0.00018300     0.00018142
         0.00017183     0.00016736     0.00016228     0.00015124     0.00014247
         0.00013574     0.00013414     0.00012397     0.00011997     0.00010453
         0.00010148     0.00009268     0.00007938     0.00005207     0.00004579
         0.00003210     0.00003087     0.00002368     0.00002322     0.00001650
         0.00001370     0.00001200     0.00001158     0.00000927     0.00000882
         0.00000444     0.00000297     0.00000134     0.00000116     0.00000062
         0.00000036     0.00000027     0.00000012    -0.00000005    -0.00000068
        -0.00000117

 Natural orbital occupation numbers, symmetry 3 (irrep B2 )
 Sum =     7.99247016; RHF =     8.00000000; Difference =    -0.00752984

         1.97832676     1.95912038     1.94529177     1.90749021     0.07102877
         0.03178836     0.01492630     0.01461920     0.01084342     0.01015108
         0.00895738     0.00719392     0.00711269     0.00533752     0.00403674
         0.00333931     0.00232224     0.00162345     0.00146966     0.00091636
         0.00089536     0.00070566     0.00055392     0.00048682     0.00047984
         0.00044397     0.00039218     0.00034736     0.00030392     0.00024586
         0.00021401     0.00020173     0.00019217     0.00018247     0.00017263
         0.00013764     0.00012677     0.00011739     0.00009882     0.00009296
         0.00007622     0.00005542     0.00002521     0.00002215     0.00001162
         0.00000723     0.00000173    -0.00001644

 Natural orbital occupation numbers, symmetry 4 (irrep A2 )
 Sum =     4.02141226; RHF =     4.00000000; Difference =     0.02141226

         1.96878391     1.91282834     0.06954400     0.01650173     0.01101445
         0.00969484     0.00726950     0.00578499     0.00436951     0.00374123
         0.00272438     0.00175117     0.00146391     0.00096434     0.00079502
         0.00074343     0.00062921     0.00053559     0.00041523     0.00037875
         0.00031512     0.00023980     0.00019754     0.00018775     0.00015209
         0.00013374     0.00012458     0.00009944     0.00007476     0.00005047
         0.00002204     0.00001907     0.00000889    -0.00014656

 Time used for MP2 natural orbitals :     417.391 CPU seconds,     419.051 wall seconds.

 CPU and wall time for MP2 :     417.391     419.051


        SIRIUS MCSCF optimization (SIROPT)
 ================================================


 Fock matrix screening setting for SIRCNO: IFTHRS =    9


 ----- Output from SIRIUS CI module (CICTL) -----




 2-el. integral transformation level 0: Total CPU and WALL times (sec)      95.234      95.324


 --- SIRCI.CIST1: plus combination of all degenerate
                 configurations is used as start vectors.


 (CIST1) 8 lowest diagonal elements:

 Element no. Config.no.    Active energy      Total energy

         1 :          1    -15.3460930022   -433.8521652936
         2 :          2    -15.0535517419   -433.5596240333
         3 :          6    -15.0535517419   -433.5596240333
         4 :          3    -14.8460899605   -433.3521622519
         5 :         11    -14.8460899605   -433.3521622519
         6 :          7    -14.7463039082   -433.2523761996
         7 :         44    -14.7236319644   -433.2297042558
         8 :         45    -14.6192130702   -433.1252853616


 Convergence threshold for CI optimization :     0.00000500



 *** Reached maximum number of CI iterations:    3
              1 CI roots are not converged.


@ Final CI energies and residuals in symmetry 1 (irrep A1 )
@    1     -433.869587134048004       2.09D-03

   --- OUTPUT FROM SIRCNO     Keyword = FD+NO 


 Occupations of CAS natural orbitals:

 Symmetry  1 ( irrep A1  in C2v )

   1.997683842

 Symmetry  2 ( irrep B1  in C2v )

   0.002716973

 Symmetry  3 ( irrep B2  in C2v )

   1.997225182   1.988569430

 Symmetry  4 ( irrep A2  in C2v )

   1.999601008   1.972686585   0.041516979


 --- MACRO ITERATION  1 ---
 --------------------------

 2-el. integral transformation level 3: Total CPU and WALL times (sec)      96.641      96.633

 Fock matrix screening setting for this macro iteration: 10^( -9)

 Total MCSCF energy       :          -433.869587135872962  (MACRO    1)

 - Nuclear repulsion      :           416.970422364669560
 - Inactive energy        :          -835.476494654706016
 - Active energy          :           -15.363514845836521

 Norm of total gradient   :             0.421364470241
 -    of CI gradient      :             0.004187391613
 -    of orbital gradient :             0.421343663217
      Virial theorem: -V/T =      1.987182
@    MULPOP   C       2.02; C   _1  0.05; C   _2  0.05; C   _1  0.49; C   _2  0.49; C       0.40; N       0.83; O   _1 -0.91; O   _2 -0.91; H   _1 -0.54; 
@             H   _2 -0.54; H   _1 -0.47; H   _2 -0.47; H      -0.49; 

 (SIRNEO) iteration (  1,  5)
 Micro iteration termination criterion met, EVAL(ISTATE+1) = -4.15D-03

   --- OUTPUT FROM SIRCNO     Keyword = FD+NO 


 Occupations of CAS natural orbitals:

 Symmetry  1 ( irrep A1  in C2v )

   1.990681755

 Symmetry  2 ( irrep B1  in C2v )

   0.009729272

 Symmetry  3 ( irrep B2  in C2v )

   1.997165641   1.987759537

 Symmetry  4 ( irrep A2  in C2v )

   1.999590013   1.970953901   0.044119881


 --- MACRO ITERATION  2 ---
 --------------------------

 2-el. integral transformation level 3: Total CPU and WALL times (sec)      97.047      97.078

 Fock matrix screening setting for this macro iteration: 10^( -9)

 Total MCSCF energy       :          -433.883634514416599  (MACRO    2)

 - Nuclear repulsion      :           416.970422364669560
 - Inactive energy        :          -835.211031517618608
 - Active energy          :           -15.643025361467529

 Norm of total gradient   :             0.073171999064
 -    of CI gradient      :             0.056880883343
 -    of orbital gradient :             0.046029409698
      Virial theorem: -V/T =      1.988895
@    MULPOP   C       2.03; C   _1 -0.20; C   _2 -0.20; C   _1  0.66; C   _2  0.66; C       0.33; N       1.15; O   _1 -1.04; O   _2 -1.04; H   _1 -0.52; 
@             H   _2 -0.52; H   _1 -0.43; H   _2 -0.43; H      -0.45; 

 Residual norm when dim(red L) =   8
 NEO root     CSF        orbital          total
    1     0.00796134     0.00402807     0.00892235 converged

 (NEONEX) NEO vector is converged.

   --- OUTPUT FROM SIRCNO     Keyword = FD+NO 


 Occupations of CAS natural orbitals:

 Symmetry  1 ( irrep A1  in C2v )

   1.987420790

 Symmetry  2 ( irrep B1  in C2v )

   0.013525263

 Symmetry  3 ( irrep B2  in C2v )

   1.997382296   1.987427441

 Symmetry  4 ( irrep A2  in C2v )

   1.999052862   1.969756416   0.045434932


 --- MACRO ITERATION  3 ---
 --------------------------

 2-el. integral transformation level 3: Total CPU and WALL times (sec)      96.484      96.494

 Fock matrix screening setting for this macro iteration: 10^( -9)

 Total MCSCF energy       :          -433.892968955642914  (MACRO    3)

 - Nuclear repulsion      :           416.970422364669560
 - Inactive energy        :          -834.832725672322795
 - Active energy          :           -16.030665647989654

 Norm of total gradient   :             0.026657468319
 -    of CI gradient      :             0.016819143056
 -    of orbital gradient :             0.020681804662
      Virial theorem: -V/T =      1.982823
@    MULPOP   C       2.29; C   _1 -0.13; C   _2 -0.13; C   _1  0.59; C   _2  0.59; C       0.33; N       1.38; O   _1 -1.29; O   _2 -1.29; H   _1 -0.50; 
@             H   _2 -0.50; H   _1 -0.44; H   _2 -0.44; H      -0.45; 

 Residual norm when dim(red L) =   7
 NEO root     CSF        orbital          total
    1     0.00483877     0.00197834     0.00522758 converged

 (NEONEX) NEO vector is converged.

   --- OUTPUT FROM SIRCNO     Keyword = FD+NO 


 Occupations of CAS natural orbitals:

 Symmetry  1 ( irrep A1  in C2v )

   1.979818269

 Symmetry  2 ( irrep B1  in C2v )

   0.020942515

 Symmetry  3 ( irrep B2  in C2v )

   1.997528444   1.987207898

 Symmetry  4 ( irrep A2  in C2v )

   1.999238650   1.969429921   0.045834303


 --- MACRO ITERATION  4 ---
 --------------------------

 2-el. integral transformation level 3: Total CPU and WALL times (sec)      96.594      96.688

 Fock matrix screening setting for this macro iteration: 10^( -9)

 Total MCSCF energy       :          -433.898076557670095  (MACRO    4)

 - Nuclear repulsion      :           416.970422364669560
 - Inactive energy        :          -834.186556798413903
 - Active energy          :           -16.681942123925740

 Norm of total gradient   :             0.105167239413
 -    of CI gradient      :             0.102776678879
 -    of orbital gradient :             0.022295796116
      Virial theorem: -V/T =      1.977468
@    MULPOP   C       2.27; C   _1 -0.12; C   _2 -0.12; C   _1  0.58; C   _2  0.58; C       0.33; N       1.64; O   _1 -1.42; O   _2 -1.42; H   _1 -0.49; 
@             H   _2 -0.49; H   _1 -0.44; H   _2 -0.44; H      -0.45; 

 Residual norm when dim(red L) =   8
 NEO root     CSF        orbital          total
    1     0.00363274     0.00210148     0.00419679 converged

 (NEONEX) NEO vector is converged.

   --- OUTPUT FROM SIRCNO     Keyword = FD+NO 


 Occupations of CAS natural orbitals:

 Symmetry  1 ( irrep A1  in C2v )

   1.986458020

 Symmetry  2 ( irrep B1  in C2v )

   0.014272837

 Symmetry  3 ( irrep B2  in C2v )

   1.997372845   1.987290038

 Symmetry  4 ( irrep A2  in C2v )

   1.999268821   1.969757756   0.045579684


 --- MACRO ITERATION  5 ---
 --------------------------

 2-el. integral transformation level 3: Total CPU and WALL times (sec)      96.828      96.854

 Fock matrix screening setting for this macro iteration: 10^( -9)

 Total MCSCF energy       :          -433.899149251278345  (MACRO    5)

 - Nuclear repulsion      :           416.970422364669560
 - Inactive energy        :          -834.194999583704544
 - Active energy          :           -16.674572032243383

 Norm of total gradient   :             0.004575571596
 -    of CI gradient      :             0.003792808460
 -    of orbital gradient :             0.002559386530
      Virial theorem: -V/T =      1.977078
@    MULPOP   C       2.25; C   _1 -0.11; C   _2 -0.11; C   _1  0.57; C   _2  0.57; C       0.32; N       1.66; O   _1 -1.42; O   _2 -1.42; H   _1 -0.49; 
@             H   _2 -0.49; H   _1 -0.44; H   _2 -0.44; H      -0.45; 

 Residual norm when dim(red L) =  12
 NEO root     CSF        orbital          total
    1     0.00003578     0.00002033     0.00004115 converged

 (NEONEX) NEO vector is converged.

   --- OUTPUT FROM SIRCNO     Keyword = FD+NO 


 Occupations of CAS natural orbitals:

 Symmetry  1 ( irrep A1  in C2v )

   1.986321870

 Symmetry  2 ( irrep B1  in C2v )

   0.014368446

 Symmetry  3 ( irrep B2  in C2v )

   1.997601821   1.987072452

 Symmetry  4 ( irrep A2  in C2v )

   1.999309324   1.969220661   0.046105426


 --- MACRO ITERATION  6 ---
 --------------------------

 2-el. integral transformation level 3: Total CPU and WALL times (sec)      96.375      96.355

 Fock matrix screening setting for this macro iteration: 10^( -9)

 Total MCSCF energy       :          -433.899162405599782  (MACRO    6)

 - Nuclear repulsion      :           416.970422364669560
 - Inactive energy        :          -834.229879921617339
 - Active energy          :           -16.639704848651988

 Norm of total gradient   :             0.000145394792
 -    of CI gradient      :             0.000143009891
 -    of orbital gradient :             0.000026226256
      Virial theorem: -V/T =      1.977156
@    MULPOP   C       2.25; C   _1 -0.11; C   _2 -0.11; C   _1  0.57; C   _2  0.57; C       0.32; N       1.66; O   _1 -1.42; O   _2 -1.42; H   _1 -0.49; 
@             H   _2 -0.49; H   _1 -0.44; H   _2 -0.44; H      -0.45; 

 Residual norm when dim(red L) =   8
 NEO root     CSF        orbital          total
    1     0.00000783     0.00000509     0.00000934 converged

 (NEONEX) NEO vector is converged.

   --- OUTPUT FROM SIRCNO     Keyword = FD+NO 


 Occupations of CAS natural orbitals:

 Symmetry  1 ( irrep A1  in C2v )

   1.986329648

 Symmetry  2 ( irrep B1  in C2v )

   0.014359733

 Symmetry  3 ( irrep B2  in C2v )

   1.997602151   1.987072484

 Symmetry  4 ( irrep A2  in C2v )

   1.999310259   1.969224103   0.046101623


 --- MACRO ITERATION  7 ---
 --------------------------

 2-el. integral transformation level 3: Total CPU and WALL times (sec)      96.922      96.913

 Fock matrix screening setting for this macro iteration: 10^( -9)

 Total MCSCF energy       :          -433.899162408285122  (MACRO    7)

 - Nuclear repulsion      :           416.970422364669560
 - Inactive energy        :          -834.229826810065788
 - Active energy          :           -16.639757962888872

 Norm of total gradient   :             0.000009342691
 -    of CI gradient      :             0.000007834791
 -    of orbital gradient :             0.000005089394
      Virial theorem: -V/T =      1.977157
@    MULPOP   C       2.25; C   _1 -0.11; C   _2 -0.11; C   _1  0.57; C   _2  0.57; C       0.32; N       1.66; O   _1 -1.42; O   _2 -1.42; H   _1 -0.49; 
@             H   _2 -0.49; H   _1 -0.44; H   _2 -0.44; H      -0.45; 

 (SIRSTP) Energy difference;
 actual, predicted and ratio:  -0.000000002685340  -0.000000002695908    0.996080
 Close to convergence, ratio set to one.

 *** Optimization control: MCSCF converged ***
     Number of macro iterations used            7
     Number of micro iterations used           38
     Total number of CPU seconds used      2289.59

 CPU and wall time for MCSCF :    2289.594    2290.148


                     .----------------------------------------.
                     | --- SIRIUS OPTIMIZATION STATISTICS --- |
                     `----------------------------------------'


 
     Date and time (Linux)  : Sat Jan 11 08:24:31 2020
     Host name              : Lab2-333-NPs                            


  ITER ITMIC     EMCSCF           GRDNRM        RATIO      STPLNG
 ---------------------------------------------------------------------
    1    5   -433.869587135873   0.4213644702  0.000000   0.6969597417
    2    6   -433.883634514417   0.0731719991  0.840942   0.7316474030
    3    5   -433.892968955643   0.0266574683  0.698732   0.7659277428
    4    6   -433.898076557670   0.1051672394  0.515638   0.0546517537
    5   10   -433.899149251278   0.0045755716  1.008569   0.0181895153
    6    6   -433.899162405600   0.0001453948  0.999537   0.0003606273
    7    0   -433.899162408285   0.0000093427  1.000000   0.0000000000


  ITER  INDGCM  GCIMAX      GCINRM     INDGOM  GOBMAX      GOBNRM      GRDNRM
 ------------------------------------------------------------------------------
    1     25    0.002079    0.004187   2644   -0.059993    0.421344    0.421364
    2     26   -0.054225    0.056881   1608    0.010237    0.046029    0.073172
    3     56    0.008784    0.016819      7    0.007189    0.020682    0.026657
    4     26    0.101595    0.102777   1545   -0.006849    0.022296    0.105167
    5     50    0.002244    0.003793   2476   -0.000670    0.002559    0.004576
    6     26    0.000134    0.000143   2477    0.000006    0.000026    0.000145
    7     50    0.000004    0.000008   1598   -0.000001    0.000005    0.000009


  ITER ITMIC NCLIN NOLIN   TIMMAC    TIMITR    TIMMIC    TIMLIN    TIMMIC/ITMIC
 ------------------------------------------------------------------------------

    1     5     1     4    296.69     96.64    171.48    142.73     34.30
    2     6     2     5    328.58     97.05    202.98    174.31     33.83
    3     5     2     4    298.33     96.48    173.25    144.58     34.65
    4     6     3     4    325.16     96.59    199.83    171.16     33.30
    5    10     4     7    440.47     96.83    315.05    286.39     31.50
    6     6     3     4    324.80     96.38    199.86    171.19     33.31
    7     0     0     0    125.47     96.92      0.00      0.00


 ITER         EMY                 EACTIV              EMCSCF

    1   -835.476494654706    -15.363514845837   -433.869587135873
    2   -835.211031517619    -15.643025361468   -433.883634514417
    3   -834.832725672323    -16.030665647990   -433.892968955643
    4   -834.186556798414    -16.681942123926   -433.898076557670
    5   -834.194999583705    -16.674572032243   -433.899149251278
    6   -834.229879921617    -16.639704848652   -433.899162405600
    7   -834.229826810066    -16.639757962889   -433.899162408285


 ITER         DEPRED              DEACT               RATIO

    1      0.000000000000      0.000000000000      0.000000000000
    2     -0.016704336626     -0.014047378544      0.840942017527
    3     -0.013359121426     -0.009334441226      0.698731670170
    4     -0.009905411253     -0.005107602027      0.515637553754
    5     -0.001063579912     -0.001072693608      1.008568887254
    6     -0.000013160408     -0.000013154321      0.999537494085
    7     -0.000000002696     -0.000000002685      1.000000000000


 ITER    BETA           GAMMA             STPLNG              RTRUST

    1      0.75377416  1.00000000      0.696959741711      0.700000000000
    2      2.27258075  1.00000000      0.731647402960      0.700000000000
    3      1.08513859  1.00000000      0.765927742806      0.700000000000
    4      0.20000000  1.00000000      0.054651753716      0.700000000000
    5      0.20000000  1.00000000      0.018189515291      0.700000000000
    6      0.20000000  1.00000000      0.000360627251      0.700000000000
    7      0.00000000  0.00000000      0.000000000000      0.700000000000


 Reduced L root no.  1
 ITER         EVAL              EVEC(1)           EVEC(2)           EVEC(3)
 ----------------------------------------------------------------------------
    1   -0.014876250158    0.885270259044   -0.443833675412   -0.103047407867
    2   -0.036653913297   -0.515391087147   -0.008006846970    0.792188378121
    3   -0.013796955544    0.769051049263   -0.002408296646   -0.623349775914
    4   -0.000085076229    0.999940269068   -0.003117871541   -0.006432319485
    5   -0.000001052819    0.999993382896   -0.000430820339   -0.003175009291
    6   -0.000000000216    0.999999997399   -0.000006122167   -0.000067583975
    7    0.000000000000    0.000000000000    0.000000000000    0.000000000000


                       .-----------------------------------.
                       | --- Final results from SIRIUS --- |
                       `-----------------------------------'


@    Spin multiplicity:           1
@    Spatial symmetry:            1 ( irrep  A1  in C2v )
@    Total charge of molecule:    0
@    State number:                1

@    Final MCSCF energy:         -433.899162408285                 
@    Nuclear repulsion:           416.970422364670
@    Electronic energy:          -850.869584772955

@    Final gradient norm:           0.000009342691

 
     Date and time (Linux)  : Sat Jan 11 08:24:31 2020
     Host name              : Lab2-333-NPs                            

 Occupancies of natural orbitals
 -------------------------------

 Symmetry 1  ( A1 ) -- Total occupation in this symmetry is  31.986329648

   2.000000000   2.000000000   2.000000000   2.000000000   2.000000000
   2.000000000   2.000000000   2.000000000   2.000000000   2.000000000
   2.000000000   2.000000000   2.000000000   2.000000000   2.000000000
   1.986329648

 Symmetry 2  ( B1 ) -- Total occupation in this symmetry is  20.014359733

   2.000000000   2.000000000   2.000000000   2.000000000   2.000000000
   2.000000000   2.000000000   2.000000000   2.000000000   2.000000000
   0.014359733

 Symmetry 3  ( B2 ) -- Total occupation in this symmetry is   7.984674635

   2.000000000   2.000000000   1.997602151   1.987072484

 Symmetry 4  ( A2 ) -- Total occupation in this symmetry is   4.014635984

   1.999310259   1.969224103   0.046101623

[...]



 ---  SOLVING SETS OF LINEAR EQUATIONS FOR LINEAR RESPONSE PROPERTIES ---

 Operator symmetry = 4  ( A2 ); triplet =   F


 ** RSPCTL MICROITERATION NUMBER    1

       No.  Residual tot.,    conf., and orb.    Bnorm      Frequency 
      ----------------------------------------------------------------
         1    6.53242D+00  4.59D-01  6.52D+00  5.82D+01    0.00000D+00

 ** RSPCTL MICROITERATION NUMBER    2

       No.  Residual tot.,    conf., and orb.    Bnorm      Frequency 
      ----------------------------------------------------------------
         1    1.85564D+00  5.32D-01  1.78D+00  6.29D+01    0.00000D+00

 ** RSPCTL MICROITERATION NUMBER    3

       No.  Residual tot.,    conf., and orb.    Bnorm      Frequency 
      ----------------------------------------------------------------
         1    7.65416D-01  5.58D-01  5.24D-01  6.43D+01    0.00000D+00

 ** RSPCTL MICROITERATION NUMBER    4

       No.  Residual tot.,    conf., and orb.    Bnorm      Frequency 
      ----------------------------------------------------------------
         1    5.58806D-01  8.25D-02  5.53D-01  6.43D+01    0.00000D+00

 ** RSPCTL MICROITERATION NUMBER    5

       No.  Residual tot.,    conf., and orb.    Bnorm      Frequency 
      ----------------------------------------------------------------
         1    4.04415D-01  1.32D-01  3.82D-01  6.69D+01    0.00000D+00

 ** RSPCTL MICROITERATION NUMBER    6

       No.  Residual tot.,    conf., and orb.    Bnorm      Frequency 
      ----------------------------------------------------------------
         1    9.83430D-01  2.95D-01  9.38D-01  9.05D+01    0.00000D+00

 ** RSPCTL MICROITERATION NUMBER    7

 *** INFO, negative eigenvalues in reduced matrix. Symmetry  4,  triplet       F Dimension of reduced matrix =    16

 GP * SOLUTION vector at frequency     0.00000 a.u.
 after    8 linear transformations is      1.94490863D+03
 INERTIA (POS,ZER,NEG) of reduced matrix is   15    0    1
 Determinant of reduced matrix is -1.32 * 10 **-15.0

       No.  Residual tot.,    conf., and orb.    Bnorm      Frequency 
      ----------------------------------------------------------------
         1    1.27781D+01  4.79D+00  1.18D+01  1.86D+03    0.00000D+00

 ** RSPCTL MICROITERATION NUMBER    8

 *** INFO, negative eigenvalues in reduced matrix. Symmetry  4,  triplet       F Dimension of reduced matrix =    18

 GP * SOLUTION vector at frequency     0.00000 a.u.
 after    9 linear transformations is      1.96191640D+03
 INERTIA (POS,ZER,NEG) of reduced matrix is   17    0    1
 Determinant of reduced matrix is -2.05 * 10 **-17.0

       No.  Residual tot.,    conf., and orb.    Bnorm      Frequency 
      ----------------------------------------------------------------
         1    1.11020D+00  7.48D-01  8.20D-01  3.18D+02    0.00000D+00

 ** RSPCTL MICROITERATION NUMBER    9

 *** INFO, negative eigenvalues in reduced matrix. Symmetry  4,  triplet       F Dimension of reduced matrix =    20

 GP * SOLUTION vector at frequency     0.00000 a.u.
 after   10 linear transformations is      1.96235642D+03
 INERTIA (POS,ZER,NEG) of reduced matrix is   19    0    1
 Determinant of reduced matrix is -9.65 * 10 **-20.0

       No.  Residual tot.,    conf., and orb.    Bnorm      Frequency 
      ----------------------------------------------------------------
         1    7.63786D-01  6.69D-01  3.68D-01  2.80D+02    0.00000D+00

 ** RSPCTL MICROITERATION NUMBER   10

 *** INFO, negative eigenvalues in reduced matrix. Symmetry  4,  triplet       F Dimension of reduced matrix =    22

 GP * SOLUTION vector at frequency     0.00000 a.u.
 after   11 linear transformations is      1.96264084D+03
 INERTIA (POS,ZER,NEG) of reduced matrix is   21    0    1
 Determinant of reduced matrix is -1.78 * 10 **-19.0

       No.  Residual tot.,    conf., and orb.    Bnorm      Frequency 
      ----------------------------------------------------------------
         1    4.11589D-01  7.12D-02  4.05D-01  2.53D+02    0.00000D+00

 ** RSPCTL MICROITERATION NUMBER   11

 *** INFO, negative eigenvalues in reduced matrix. Symmetry  4,  triplet       F Dimension of reduced matrix =    24

 GP * SOLUTION vector at frequency     0.00000 a.u.
 after   12 linear transformations is      1.96273617D+03
 INERTIA (POS,ZER,NEG) of reduced matrix is   23    0    1
 Determinant of reduced matrix is -2.19 * 10 **-21.0

       No.  Residual tot.,    conf., and orb.    Bnorm      Frequency 
      ----------------------------------------------------------------
         1    1.91828D-01  1.05D-01  1.61D-01  2.45D+02    0.00000D+00

 *** THE REQUESTED    1 SOLUTION VECTORS CONVERGED

 Convergence of RSP solution vectors, threshold = 1.00D-03
 ---------------------------------------------------------------
 (dimension of paired reduced space:   24)
 RSP solution vector no.    1; norm of residual   7.82D-04

 *** RSPCTL MICROITERATIONS CONVERGED
    XDIPLEN     YDIPLEN      freq1     freq2                Norm
 ---------------------------------------------------------------
                          0.058400 -0.058400        245.27732283


 Perturbation symmetry.     KSYMOP:       1
 Perturbation spin symmetry.TRPLET:       F
 Orbital variables.         KZWOPT:    2762
 Configuration variables.   KZCONF:     115
 Total number of variables. KZVAR :    2877


 CRLRV2 -- linear response calc for sym:  1
 CRLRV2 -- operator label1: YDIPLEN 
 CRLRV2 -- operator label2: YDIPLEN 
 CRLRV2 -- freqr1 :   5.840000D-02
 CRLRV2 -- freqr2 :   5.840000D-02



 ---  SOLVING SETS OF LINEAR EQUATIONS FOR LINEAR RESPONSE PROPERTIES ---

 Operator symmetry = 1  ( A1 ); triplet =   F


 ** RSPCTL MICROITERATION NUMBER    1

       No.  Residual tot.,    conf., and orb.    Bnorm      Frequency 
      ----------------------------------------------------------------
         1    1.74427D+01  1.13D+00  1.74D+01  9.71D+01    1.16800D-01

 ** RSPCTL MICROITERATION NUMBER    2

       No.  Residual tot.,    conf., and orb.    Bnorm      Frequency 
      ----------------------------------------------------------------
         1    7.65121D+00  8.49D-01  7.60D+00  1.04D+02    1.16800D-01

 ** RSPCTL MICROITERATION NUMBER    3

       No.  Residual tot.,    conf., and orb.    Bnorm      Frequency 
      ----------------------------------------------------------------
         1    2.88766D+00  1.06D+00  2.69D+00  1.06D+02    1.16800D-01

 ** RSPCTL MICROITERATION NUMBER    4

       No.  Residual tot.,    conf., and orb.    Bnorm      Frequency 
      ----------------------------------------------------------------
         1    1.79938D+00  1.14D+00  1.39D+00  1.06D+02    1.16800D-01

 ** RSPCTL MICROITERATION NUMBER    5

       No.  Residual tot.,    conf., and orb.    Bnorm      Frequency 
      ----------------------------------------------------------------
         1    1.41713D+00  1.20D+00  7.51D-01  1.06D+02    1.16800D-01

 ** RSPCTL MICROITERATION NUMBER    6

       No.  Residual tot.,    conf., and orb.    Bnorm      Frequency 
      ----------------------------------------------------------------
         1    1.45318D+00  2.61D-01  1.43D+00  1.06D+02    1.16800D-01

 ** RSPCTL MICROITERATION NUMBER    7

       No.  Residual tot.,    conf., and orb.    Bnorm      Frequency 
      ----------------------------------------------------------------
         1    6.75742D-01  2.64D-01  6.22D-01  1.06D+02    1.16800D-01

 ** RSPCTL MICROITERATION NUMBER    8

       No.  Residual tot.,    conf., and orb.    Bnorm      Frequency 
      ----------------------------------------------------------------
         1    3.37285D-01  2.64D-01  2.10D-01  1.06D+02    1.16800D-01

 ** RSPCTL MICROITERATION NUMBER    9

       No.  Residual tot.,    conf., and orb.    Bnorm      Frequency 
      ----------------------------------------------------------------
         1    2.36358D-01  8.14D-02  2.22D-01  1.06D+02    1.16800D-01

 ** RSPCTL MICROITERATION NUMBER   10

       No.  Residual tot.,    conf., and orb.    Bnorm      Frequency 
      ----------------------------------------------------------------
         1    1.34361D-01  8.11D-02  1.07D-01  1.06D+02    1.16800D-01

 ** RSPCTL MICROITERATION NUMBER   11

       No.  Residual tot.,    conf., and orb.    Bnorm      Frequency 
      ----------------------------------------------------------------
         1    8.66152D-02  7.91D-02  3.54D-02  1.06D+02    1.16800D-01

 *** THE REQUESTED    1 SOLUTION VECTORS CONVERGED

 Convergence of RSP solution vectors, threshold = 1.00D-03
 ---------------------------------------------------------------
 (dimension of paired reduced space:   24)
 RSP solution vector no.    1; norm of residual   8.16D-04

 *** RSPCTL MICROITERATIONS CONVERGED
    YDIPLEN     YDIPLEN      freq1     freq2                Norm
 ---------------------------------------------------------------
                          0.058400  0.058400        106.19308334
  Time used in CRVEC2     is       2 hours  7 minutes 57 seconds


 ----- CALCULATING CONTRIBUTIONS TO SECOND HYPERPOLARIZABILITY -----


   Contribution                Term         Accumulated
 ------------------------------------------------------
 Na T[4] Nb Nc Nd    -8325.75773606      -8325.75773606
 Na T[3] Nx Nyz      10819.39076727       2493.63303121
 Na X[3] Ny Nz       19588.61301279      22082.24604400
 Nx A[3] Ny Nz        6529.53767093      28611.78371493
 Na X[2] Nyz        -32201.17998405      -3589.39626912
 Nx A[2] Nyz        -31961.22851054     -35550.62477966

@ Cubic response function value in a.u. for
@ A operator, symmetry, frequency:   ZDIPLEN    1 -0.058400
@ B operator, symmetry, frequency:   ZDIPLEN    1  0.058400
@ C operator, symmetry, frequency:   ZDIPLEN    1 -0.058400
@ D operator, symmetry, frequency:   ZDIPLEN    1  0.058400

@ << A; B, C, D >>  =      -35550.62477966



   Contribution                Term         Accumulated
 ------------------------------------------------------
 Na T[4] Nb Nc Nd     -766.88821575       -766.88821575
 Na T[3] Nx Nyz       4281.62691304       3514.73869728
 Na X[3] Ny Nz        4213.07645674       7727.81515402
 Nx A[3] Ny Nz         323.79486457       8051.61001858
 Na X[2] Nyz        -26580.46126785     -18528.85124926
 Nx A[2] Nyz         16722.23756721      -1806.61368205

@ Cubic response function value in a.u. for
@ A operator, symmetry, frequency:   XDIPLEN    2 -0.058400
@ B operator, symmetry, frequency:   XDIPLEN    2  0.058400
@ C operator, symmetry, frequency:   ZDIPLEN    1 -0.058400
@ D operator, symmetry, frequency:   ZDIPLEN    1  0.058400

@ << A; B, C, D >>  =       -1806.61368205



   Contribution                Term         Accumulated
 ------------------------------------------------------
 Na T[4] Nb Nc Nd     -496.17482536       -496.17482536
 Na T[3] Nx Nyz       1149.70373921        653.52891385
 Na X[3] Ny Nz         819.16559761       1472.69451146
 Nx A[3] Ny Nz         296.16726177       1768.86177323
 Na X[2] Nyz         -3975.76149640      -2206.89972317
 Nx A[2] Nyz         -5525.86207220      -7732.76179537

@ Cubic response function value in a.u. for
@ A operator, symmetry, frequency:   YDIPLEN    3 -0.058400
@ B operator, symmetry, frequency:   YDIPLEN    3  0.058400
@ C operator, symmetry, frequency:   ZDIPLEN    1 -0.058400
@ D operator, symmetry, frequency:   ZDIPLEN    1  0.058400

@ << A; B, C, D >>  =       -7732.76179537



   Contribution                Term         Accumulated
 ------------------------------------------------------
 Na T[4] Nb Nc Nd     -582.91167754       -582.91167754
 Na T[3] Nx Nyz       4055.24904339       3472.33736586
 Na X[3] Ny Nz        3671.97135999       7144.30872584
 Nx A[3] Ny Nz         -24.42141836       7119.88730748
 Na X[2] Nyz        -27919.62576276     -20799.73845528
 Nx A[2] Nyz         19519.62778177      -1280.11067351

@ Cubic response function value in a.u. for
@ A operator, symmetry, frequency:   XDIPLEN    2 -0.058400
@ B operator, symmetry, frequency:   ZDIPLEN    1  0.058400
@ C operator, symmetry, frequency:   XDIPLEN    2 -0.058400
@ D operator, symmetry, frequency:   ZDIPLEN    1  0.058400

@ << A; B, C, D >>  =       -1280.11067351



   Contribution                Term         Accumulated
 ------------------------------------------------------
 Na T[4] Nb Nc Nd     -434.44690484       -434.44690484
 Na T[3] Nx Nyz       1197.73900266        763.29209782
 Na X[3] Ny Nz         724.73446430       1488.02656213
 Nx A[3] Ny Nz         230.43364348       1718.46020561
 Na X[2] Nyz         -3985.03116820      -2266.57096259
 Nx A[2] Nyz         -5365.09372899      -7631.66469158

@ Cubic response function value in a.u. for
@ A operator, symmetry, frequency:   YDIPLEN    3 -0.058400
@ B operator, symmetry, frequency:   ZDIPLEN    1  0.058400
@ C operator, symmetry, frequency:   YDIPLEN    3 -0.058400
@ D operator, symmetry, frequency:   ZDIPLEN    1  0.058400

@ << A; B, C, D >>  =       -7631.66469158



   Contribution                Term         Accumulated
 ------------------------------------------------------
 Na T[4] Nb Nc Nd     -223.89804353       -223.89804353
 Na T[3] Nx Nyz      -9365.06902386      -9588.96706739
 Na X[3] Ny Nz        3242.94358516      -6346.02348223
 Nx A[3] Ny Nz        2329.39306674      -4016.63041549
 Na X[2] Nyz         26772.96905374      22756.33863825
 Nx A[2] Nyz        -24037.54228147      -1281.20364322

@ Cubic response function value in a.u. for
@ A operator, symmetry, frequency:   ZDIPLEN    1 -0.058400
@ B operator, symmetry, frequency:   XDIPLEN    2  0.058400
@ C operator, symmetry, frequency:   ZDIPLEN    1 -0.058400
@ D operator, symmetry, frequency:   XDIPLEN    2  0.058400

@ << A; B, C, D >>  =       -1281.20364322



   Contribution                Term         Accumulated
 ------------------------------------------------------
 Na T[4] Nb Nc Nd    -2396.50282691      -2396.50282691
 Na T[3] Nx Nyz      -5092.14723310      -7488.65006000
 Na X[3] Ny Nz       14462.94800771       6974.29794771
 Nx A[3] Ny Nz        4820.98266924      11795.28061694
 Na X[2] Nyz         -9532.95712742       2262.32348952
 Nx A[2] Nyz        -11887.45358491      -9625.13009539

@ Cubic response function value in a.u. for
@ A operator, symmetry, frequency:   XDIPLEN    2 -0.058400
@ B operator, symmetry, frequency:   XDIPLEN    2  0.058400
@ C operator, symmetry, frequency:   XDIPLEN    2 -0.058400
@ D operator, symmetry, frequency:   XDIPLEN    2  0.058400

@ << A; B, C, D >>  =       -9625.13009539



   Contribution                Term         Accumulated
 ------------------------------------------------------
 Na T[4] Nb Nc Nd     -251.92358543       -251.92358543
 Na T[3] Nx Nyz       1190.40492704        938.48134161
 Na X[3] Ny Nz         419.75174630       1358.23308791
 Nx A[3] Ny Nz          87.64382933       1445.87691725
 Na X[2] Nyz         -3053.75332220      -1607.87640495
 Nx A[2] Nyz         -4326.44027767      -5934.31668263

@ Cubic response function value in a.u. for
@ A operator, symmetry, frequency:   YDIPLEN    3 -0.058400
@ B operator, symmetry, frequency:   YDIPLEN    3  0.058400
@ C operator, symmetry, frequency:   XDIPLEN    2 -0.058400
@ D operator, symmetry, frequency:   XDIPLEN    2  0.058400

@ << A; B, C, D >>  =       -5934.31668263



   Contribution                Term         Accumulated
 ------------------------------------------------------
 Na T[4] Nb Nc Nd     -229.83682531       -229.83682531
 Na T[3] Nx Nyz       1241.23090937       1011.39408406
 Na X[3] Ny Nz         369.36252421       1380.75660827
 Nx A[3] Ny Nz          56.60274436       1437.35935264
 Na X[2] Nyz         -3039.05768834      -1601.69833570
 Nx A[2] Nyz         -4180.41272362      -5782.11105932

@ Cubic response function value in a.u. for
@ A operator, symmetry, frequency:   YDIPLEN    3 -0.058400
@ B operator, symmetry, frequency:   XDIPLEN    2  0.058400
@ C operator, symmetry, frequency:   YDIPLEN    3 -0.058400
@ D operator, symmetry, frequency:   XDIPLEN    2  0.058400

@ << A; B, C, D >>  =       -5782.11105932



   Contribution                Term         Accumulated
 ------------------------------------------------------
 Na T[4] Nb Nc Nd     -397.65705663       -397.65705663
 Na T[3] Nx Nyz       1230.86396188        833.20690525
 Na X[3] Ny Nz         641.71720195       1474.92410720
 Nx A[3] Ny Nz         225.05024527       1699.97435247
 Na X[2] Nyz         -5287.08874362      -3587.11439116
 Nx A[2] Nyz         -4043.15181070      -7630.26620185

@ Cubic response function value in a.u. for
@ A operator, symmetry, frequency:   ZDIPLEN    1 -0.058400
@ B operator, symmetry, frequency:   YDIPLEN    3  0.058400
@ C operator, symmetry, frequency:   ZDIPLEN    1 -0.058400
@ D operator, symmetry, frequency:   YDIPLEN    3  0.058400

@ << A; B, C, D >>  =       -7630.26620185



   Contribution                Term         Accumulated
 ------------------------------------------------------
 Na T[4] Nb Nc Nd     -181.95435294       -181.95435294
 Na T[3] Nx Nyz       1351.90416393       1169.94981100
 Na X[3] Ny Nz         189.47239611       1359.42220711
 Nx A[3] Ny Nz         129.67556241       1489.09776951
 Na X[2] Nyz         -4291.15433595      -2802.05656643
 Nx A[2] Nyz         -2979.99058130      -5782.04714773

@ Cubic response function value in a.u. for
@ A operator, symmetry, frequency:   XDIPLEN    2 -0.058400
@ B operator, symmetry, frequency:   YDIPLEN    3  0.058400
@ C operator, symmetry, frequency:   XDIPLEN    2 -0.058400
@ D operator, symmetry, frequency:   YDIPLEN    3  0.058400

@ << A; B, C, D >>  =       -5782.04714773



   Contribution                Term         Accumulated
 ------------------------------------------------------
 Na T[4] Nb Nc Nd     -465.18091323       -465.18091323
 Na T[3] Nx Nyz       2617.33682165       2152.15590842
 Na X[3] Ny Nz        1515.81724255       3667.97315097
 Nx A[3] Ny Nz         505.27241418       4173.24556515
 Na X[2] Nyz         -8016.02377398      -3842.77820883
 Nx A[2] Nyz         -8012.69843237     -11855.47664121

@ Cubic response function value in a.u. for
@ A operator, symmetry, frequency:   YDIPLEN    3 -0.058400
@ B operator, symmetry, frequency:   YDIPLEN    3  0.058400
@ C operator, symmetry, frequency:   YDIPLEN    3 -0.058400
@ D operator, symmetry, frequency:   YDIPLEN    3  0.058400

@ << A; B, C, D >>  =      -11855.47664121



  Summary of gamma values for a set of frequencies
 -------------------------------------------------

@ B-freq:  0.058400
@ C-freq: -0.058400
@ D-freq:  0.058400

@ gamma(X;X,X,X)       9625.1301
@ gamma(X;X,Y,Y)       5934.3167
@ gamma(X;Y,Y,X)       5934.3167
@ gamma(X;Y,X,Y)       5782.0471
@ gamma(X;X,Z,Z)       1806.6137
@ gamma(X;Z,Z,X)       1806.6137
@ gamma(X;Z,X,Z)       1280.1107
@ gamma(Y;Y,X,X)       5934.3167
@ gamma(Y;X,X,Y)       5934.3167
@ gamma(Y;X,Y,X)       5782.1111
@ gamma(Y;Y,Y,Y)      11855.4766
@ gamma(Y;Y,Z,Z)       7732.7618
@ gamma(Y;Z,Z,Y)       7732.7618
@ gamma(Y;Z,Y,Z)       7631.6647
@ gamma(Z;Z,X,X)       1806.6137
@ gamma(Z;X,X,Z)       1806.6137
@ gamma(Z;X,Z,X)       1281.2036
@ gamma(Z;Z,Y,Y)       7732.7618
@ gamma(Z;Y,Y,Z)       7732.7618
@ gamma(Z;Y,Z,Y)       7630.2662
@ gamma(Z;Z,Z,Z)      35550.6248

@ Averaged gamma parallel to the applied field is     17491.724440

  Total CPU  time used in RESPONSE:   6 hours 40 minutes  6 seconds
  Total wall time used in RESPONSE:   6 hours 40 minutes 14 seconds


                   .-------------------------------------------.
                   | End of Dynamic Property Section (RESPONS) |
                   `-------------------------------------------'

  Total CPU  time used in DALTON:   7 hours 31 minutes 47 seconds
  Total wall time used in DALTON:   7 hours 31 minutes 58 seconds

 
     Date and time (Linux)  : Sat Jan 11 15:04:45 2020
     Host name              : Lab2-333-NPs                            
