

     ************************************************************************
     *************** Dalton - An Electronic Structure Program ***************
     ************************************************************************

    This is output from DALTON release Dalton2018.1 (2019)
         ( Web site: http://daltonprogram.org )

   ----------------------------------------------------------------------------

    NOTE:
     
    Dalton is an experimental code for the evaluation of molecular
    properties using (MC)SCF, DFT, CI, and CC wave functions.
    The authors accept no responsibility for the performance of
    the code or for the correctness of the results.
     
    The code (in whole or part) is provided under a licence and
    is not to be reproduced for further distribution without
    the written permission of the authors or their representatives.
     
    See the home page "http://daltonprogram.org" for further information.
     
    If results obtained with this code are published,
    the appropriate citations would be both of:
     
       K. Aidas, C. Angeli, K. L. Bak, V. Bakken, R. Bast,
       L. Boman, O. Christiansen, R. Cimiraglia, S. Coriani,
       P. Dahle, E. K. Dalskov, U. Ekstroem,
       T. Enevoldsen, J. J. Eriksen, P. Ettenhuber, B. Fernandez,
       L. Ferrighi, H. Fliegl, L. Frediani, K. Hald, A. Halkier,
       C. Haettig, H. Heiberg, T. Helgaker, A. C. Hennum,
       H. Hettema, E. Hjertenaes, S. Hoest, I.-M. Hoeyvik,
       M. F. Iozzi, B. Jansik, H. J. Aa. Jensen, D. Jonsson,
       P. Joergensen, J. Kauczor, S. Kirpekar,
       T. Kjaergaard, W. Klopper, S. Knecht, R. Kobayashi, H. Koch,
       J. Kongsted, A. Krapp, K. Kristensen, A. Ligabue,
       O. B. Lutnaes, J. I. Melo, K. V. Mikkelsen, R. H. Myhre,
       C. Neiss, C. B. Nielsen, P. Norman, J. Olsen,
       J. M. H. Olsen, A. Osted, M. J. Packer, F. Pawlowski,
       T. B. Pedersen, P. F. Provasi, S. Reine, Z. Rinkevicius,
       T. A. Ruden, K. Ruud, V. Rybkin, P. Salek, C. C. M. Samson,
       A. Sanchez de Meras, T. Saue, S. P. A. Sauer,
       B. Schimmelpfennig, K. Sneskov, A. H. Steindal,
       K. O. Sylvester-Hvid, P. R. Taylor, A. M. Teale,
       E. I. Tellgren, D. P. Tew, A. J. Thorvaldsen, L. Thoegersen,
       O. Vahtras, M. A. Watson, D. J. D. Wilson, M. Ziolkowski
       and H. Agren,
       "The Dalton quantum chemistry program system",
       WIREs Comput. Mol. Sci. 2014, 4:269–284 (doi: 10.1002/wcms.1172)
     
    and
     
       Dalton, a molecular electronic structure program,
       Release Dalton2018.1 (2019), see http://daltonprogram.org
   ----------------------------------------------------------------------------

    Authors in alphabetical order (major contribution(s) in parenthesis):

  Kestutis Aidas,           Vilnius University,           Lithuania   (QM/MM)
  Celestino Angeli,         University of Ferrara,        Italy       (NEVPT2)
  Keld L. Bak,              UNI-C,                        Denmark     (AOSOPPA, non-adiabatic coupling, magnetic properties)
  Vebjoern Bakken,          University of Oslo,           Norway      (DALTON; geometry optimizer, symmetry detection)
  Radovan Bast,             UiT The Arctic U. of Norway,  Norway      (DALTON installation and execution frameworks)
  Pablo Baudin,             University of Valencia,       Spain       (Cholesky excitation energies)
  Linus Boman,              NTNU,                         Norway      (Cholesky decomposition and subsystems)
  Ove Christiansen,         Aarhus University,            Denmark     (CC module)
  Renzo Cimiraglia,         University of Ferrara,        Italy       (NEVPT2)
  Sonia Coriani,            Technical Univ. of Denmark,   Denmark     (CC module, MCD in RESPONS)
  Janusz Cukras,            University of Trieste,        Italy       (MChD in RESPONS)
  Paal Dahle,               University of Oslo,           Norway      (Parallelization)
  Erik K. Dalskov,          UNI-C,                        Denmark     (SOPPA)
  Thomas Enevoldsen,        Univ. of Southern Denmark,    Denmark     (SOPPA)
  Janus J. Eriksen,         Aarhus University,            Denmark     (Polarizable embedding model, TDA)
  Rasmus Faber,             University of Copenhagen,     Denmark     (Vib.avg. NMR with SOPPA, parallel AO-SOPPA)
  Tobias Fahleson,          KTH Stockholm,                Sweden      (Damped cubic response)
  Berta Fernandez,          U. of Santiago de Compostela, Spain       (doublet spin, ESR in RESPONS)
  Lara Ferrighi,            Aarhus University,            Denmark     (PCM Cubic response)
  Heike Fliegl,             University of Oslo,           Norway      (CCSD(R12))
  Luca Frediani,            UiT The Arctic U. of Norway,  Norway      (PCM)
  Bin Gao,                  UiT The Arctic U. of Norway,  Norway      (Gen1Int library)
  Christof Haettig,         Ruhr-University Bochum,       Germany     (CC module)
  Kasper Hald,              Aarhus University,            Denmark     (CC module)
  Asger Halkier,            Aarhus University,            Denmark     (CC module)
  Frederik Beyer Hansen,    University of Copenhagen,     Denmark     (Parallel AO-SOPPA)
  Erik D. Hedegaard,        Univ. of Southern Denmark,    Denmark     (Polarizable embedding model, QM/MM)
  Hanne Heiberg,            University of Oslo,           Norway      (geometry analysis, selected one-electron integrals)
  Trygve Helgaker,          University of Oslo,           Norway      (DALTON; ABACUS, ERI, DFT modules, London, and much more)
  Alf Christian Hennum,     University of Oslo,           Norway      (Parity violation)
  Hinne Hettema,            University of Auckland,       New Zealand (quadratic response in RESPONS; SIRIUS supersymmetry)
  Eirik Hjertenaes,         NTNU,                         Norway      (Cholesky decomposition)
  Pi A. B. Haase,           University of Copenhagen,     Denmark     (Triplet AO-SOPPA)
  Maria Francesca Iozzi,    University of Oslo,           Norway      (RPA)
  Christoph Jacob           TU Braunschweig               Germany     (Frozen density embedding model)
  Brano Jansik              Technical Univ. of Ostrava    Czech Rep.  (DFT cubic response)
  Hans Joergen Aa. Jensen,  Univ. of Southern Denmark,    Denmark     (DALTON; SIRIUS, RESPONS, ABACUS modules, London, and much more)
  Dan Jonsson,              UiT The Arctic U. of Norway,  Norway      (cubic response in RESPONS module)
  Poul Joergensen,          Aarhus University,            Denmark     (RESPONS, ABACUS, and CC modules)
  Maciej Kaminski,          University of Warsaw,         Poland      (CPPh in RESPONS)
  Joanna Kauczor,           Linkoeping University,        Sweden      (Complex polarization propagator (CPP) module)
  Sheela Kirpekar,          Univ. of Southern Denmark,    Denmark     (Mass-velocity & Darwin integrals)
  Wim Klopper,              KIT Karlsruhe,                Germany     (R12 code in CC, SIRIUS, and ABACUS modules)
  Stefan Knecht,            ETH Zurich,                   Switzerland (Parallel CI and MCSCF)
  Rika Kobayashi,           Australian National Univ.,    Australia   (DIIS in CC, London in MCSCF)
  Henrik Koch,              NTNU,                         Norway      (CC module, Cholesky decomposition)
  Jacob Kongsted,           Univ. of Southern Denmark,    Denmark     (Polarizable embedding model, QM/MM)
  Andrea Ligabue,           University of Modena,         Italy       (CTOCD, AOSOPPA)
  Nanna H. List             Univ. of Southern Denmark,    Denmark     (Polarizable embedding model)
  Ola B. Lutnaes,           University of Oslo,           Norway      (DFT Hessian)
  Juan I. Melo,             University of Buenos Aires,   Argentina   (LRESC, Relativistic Effects on NMR Shieldings)
  Kurt V. Mikkelsen,        University of Copenhagen,     Denmark     (MC-SCRF and QM/MM)
  Rolf H. Myhre,            NTNU,                         Norway      (Subsystems and CC3)
  Christian Neiss,          Univ. Erlangen-Nuernberg,     Germany     (CCSD(R12))
  Christian B. Nielsen,     University of Copenhagen,     Denmark     (QM/MM)
  Patrick Norman,           KTH Stockholm,                Sweden      (Cubic response and complex frequency response in RESPONS)
  Jeppe Olsen,              Aarhus University,            Denmark     (SIRIUS CI/density modules)
  Jogvan Magnus H. Olsen,   Univ. of Southern Denmark,    Denmark     (Polarizable embedding model, QM/MM)
  Anders Osted,             Copenhagen University,        Denmark     (QM/MM)
  Martin J. Packer,         University of Sheffield,      UK          (SOPPA)
  Filip Pawlowski,          Kazimierz Wielki University,  Poland      (CC3)
  Morten N. Pedersen,       Univ. of Southern Denmark,    Denmark     (Polarizable embedding model)
  Thomas B. Pedersen,       University of Oslo,           Norway      (Cholesky decomposition)
  Patricio F. Provasi,      University of Northeastern,   Argentina   (Analysis of coupling constants in localized orbitals)
  Zilvinas Rinkevicius,     KTH Stockholm,                Sweden      (open-shell DFT, ESR)
  Elias Rudberg,            KTH Stockholm,                Sweden      (DFT grid and basis info)
  Torgeir A. Ruden,         University of Oslo,           Norway      (Numerical derivatives in ABACUS)
  Kenneth Ruud,             UiT The Arctic U. of Norway,  Norway      (DALTON; ABACUS magnetic properties and much more)
  Pawel Salek,              KTH Stockholm,                Sweden      (DALTON; DFT code)
  Claire C. M. Samson       University of Karlsruhe       Germany     (Boys localization, r12 integrals in ERI)
  Alfredo Sanchez de Meras, University of Valencia,       Spain       (CC module, Cholesky decomposition)
  Trond Saue,               Paul Sabatier University,     France      (direct Fock matrix construction)
  Stephan P. A. Sauer,      University of Copenhagen,     Denmark     (SOPPA(CCSD), SOPPA prop., AOSOPPA, vibrational g-factors)
  Andre S. P. Gomes,        CNRS/Universite de Lille,     France      (Frozen density embedding model)
  Bernd Schimmelpfennig,    Forschungszentrum Karlsruhe,  Germany     (AMFI module)
  Kristian Sneskov,         Aarhus University,            Denmark     (Polarizable embedding model, QM/MM)
  Arnfinn H. Steindal,      UiT The Arctic U. of Norway,  Norway      (parallel QM/MM, Polarizable embedding model)
  Casper Steinmann,         Univ. of Southern Denmark,    Denmark     (QFIT, Polarizable embedding model)
  K. O. Sylvester-Hvid,     University of Copenhagen,     Denmark     (MC-SCRF)
  Peter R. Taylor,          VLSCI/Univ. of Melbourne,     Australia   (Symmetry handling ABACUS, integral transformation)
  Andrew M. Teale,          University of Nottingham,     England     (DFT-AC, DFT-D)
  David P. Tew,             University of Bristol,        England     (CCSD(R12))
  Olav Vahtras,             KTH Stockholm,                Sweden      (triplet response, spin-orbit, ESR, TDDFT, open-shell DFT)
  Lucas Visscher,           Vrije Universiteit Amsterdam, Netherlands (Frozen density embedding model)
  David J. Wilson,          La Trobe University,          Australia   (DFT Hessian and DFT magnetizabilities)
  Hans Agren,               KTH Stockholm,                Sweden      (SIRIUS module, RESPONS, MC-SCRF solvation model)
 --------------------------------------------------------------------------------

     Date and time (Linux)  : Sat Jan 18 23:32:36 2020
     Host name              : Lab2-333-NPs                            

 * Work memory size             :  1024000000 =  7.629 gigabytes.

 * Directories for basis set searches:
   1) /home/lab333/dalton/build_2018_atlas
   2) /home/lab333/dalton/build_2018_atlas/basis


Compilation information
-----------------------

 Who compiled             | lab333
 Host                     | Lab2-333-NPs
 System                   | Linux-4.4.0-43-Microsoft
 CMake generator          | Unix Makefiles
 Processor                | x86_64
 64-bit integers          | OFF
 MPI                      | OFF
 Fortran compiler         | /usr/bin/gfortran
 Fortran compiler version | GNU Fortran (Ubuntu 7.3.0-27ubuntu1~18.04) 7.3.0
 C compiler               | /usr/bin/gcc
 C compiler version       | gcc (Ubuntu 7.3.0-27ubuntu1~18.04) 7.3.0
 C++ compiler             | /usr/bin/g++
 C++ compiler version     | g++ (Ubuntu 7.3.0-27ubuntu1~18.04) 7.3.0
 BLAS                     | /usr/lib/x86_64-linux-gnu/libf77blas.so;/usr/lib/x
                          | 86_64-linux-gnu/libcblas.so;/usr/lib/x86_64-linux-
                          | gnu/libatlas.so
 LAPACK                   | /usr/lib/x86_64-linux-gnu/libatlas.so;/usr/lib/x86
                          | _64-linux-gnu/atlas/liblapack.so
 Static linking           | OFF
 Last Git revision        | da625bf48c74028e805616daee31bc5d76b3a20d
 Git branch               | (HEAD detached at Dalton2018.1)
 Configuration time       | 2019-01-18 10:20:51.437510


   Content of the .dal input file
 ----------------------------------

**DALTON INPUT
.RUN RESPONSE
.DIRECT
**WAVE FUNCTIONS
.HF
.MP2
.MCSCF
*CONFIGURATION INPUT
.SPIN MULTIPLICITY
1
.SYMMETRY
1
.INACTIVE ORBITALS
15 10 2 0
.CAS SPACE
1 1 2 3
.ELECTRONS
10
*ORBITAL INPUT
.MOSTART
.HUCKEL
*OPTIMIZATION
.DETERMINANTS
.STATE
2
*CI VECTOR
.PLUS COMBINATIONS
**RESPONSE
*CUBIC
.DIPLEN
.BFREQ
1
0.0584
.CFREQ
1
-0.0584
.DFREQ
1
0.0584
**END OF DALTON INPUT


   Content of the .mol file
 ----------------------------

BASIS
aug-cc-pCVDZ
 nitrobenzene
 Generated by the Dalton Input File Plugin for Avogadro
Atomtypes=4 Angstrom Generators=2 X Y
Charge=6.0 Atoms=4
C        0.0000000000            0.0000000000           -0.0265759623
C       -1.2190534920            0.0000000000           -0.6979856948
C       -1.2105095870            0.0000000000           -2.0897394457
C        0.0000000000            0.0000000000           -2.7841484631
Charge=7.0 Atoms=1
N        0.0000000000            0.0000000000            1.4549291696
Charge=8.0 Atoms=1
O       0.6089937804374262            0.0            2.5175539478140214
Charge=1.0 Atoms=3
H       -2.1410602955            0.0000000000           -0.1327964319
H       -2.1492827751            0.0000000000           -2.6311811056
H        0.0000000000            0.0000000000           -3.8683953478


       *******************************************************************
       *********** Output from DALTON general input processing ***********
       *******************************************************************

 --------------------------------------------------------------------------------
   Overall default print level:    0
   Print level for DALTON.STAT:    1

    AO-direct calculation (in sections where implemented)
    HERMIT 1- and 2-electron integral sections will be executed
    "Old" integral transformation used (limited to max 255 basis functions)
    Wave function sections will be executed (SIRIUS module)
    Dynamic molecular response properties section will be executed (RESPONSE module)
 --------------------------------------------------------------------------------


   ****************************************************************************
   *************** Output of molecule and basis set information ***************
   ****************************************************************************


    The two title cards from your ".mol" input:
    ------------------------------------------------------------------------
 1:  nitrobenzene                                                           
 2:  Generated by the Dalton Input File Plugin for Avogadro                 
    ------------------------------------------------------------------------

  Coordinates are entered in Angstrom and converted to atomic units.
          - Conversion factor : 1 bohr = 0.52917721 A

  Atomic type no.    1
  --------------------
  Nuclear charge:   6.00000
  Number of symmetry independent centers:    4
  Number of basis sets to read;    2
  Basis set file used for this atomic type with Z =   6 :
     "/home/lab333/dalton/build_2018_atlas/basis/aug-cc-pCVDZ"

  Atomic type no.    2
  --------------------
  Nuclear charge:   7.00000
  Number of symmetry independent centers:    1
  Number of basis sets to read;    2
  Basis set file used for this atomic type with Z =   7 :
     "/home/lab333/dalton/build_2018_atlas/basis/aug-cc-pCVDZ"

  Atomic type no.    3
  --------------------
  Nuclear charge:   8.00000
  Number of symmetry independent centers:    1
  Number of basis sets to read;    2
  Basis set file used for this atomic type with Z =   8 :
     "/home/lab333/dalton/build_2018_atlas/basis/aug-cc-pCVDZ"

  Atomic type no.    4
  --------------------
  Nuclear charge:   1.00000
  Number of symmetry independent centers:    3
  Number of basis sets to read;    2
  Basis set file used for this atomic type with Z =   1 :
     "/home/lab333/dalton/build_2018_atlas/basis/aug-cc-pCVDZ"


                         SYMGRP: Point group information
                         -------------------------------

@    Point group: C2v

@  * The irrep name for each symmetry:    1: A1     2: B1     3: B2     4: A2 

   * The point group was generated by:

      Reflection in the yz-plane
      Reflection in the xz-plane

   * Group multiplication table

        |  E   C2z  Oxz  Oyz
   -----+--------------------
     E  |  E   C2z  Oxz  Oyz
    C2z | C2z   E   Oyz  Oxz
    Oxz | Oxz  Oyz   E   C2z
    Oyz | Oyz  Oxz  C2z   E 

   * Character table

        |  E   C2z  Oxz  Oyz
   -----+--------------------
    A1  |   1    1    1    1
    B1  |   1   -1    1   -1
    B2  |   1   -1   -1    1
    A2  |   1    1   -1   -1

   * Direct product table

        | A1   B1   B2   A2 
   -----+--------------------
    A1  | A1   B1   B2   A2 
    B1  | B1   A1   A2   B2 
    B2  | B2   A2   A1   B1 
    A2  | A2   B2   B1   A1 


                                 Isotopic Masses
                                 ---------------

                           C          12.000000
                           C   _1     12.000000
                           C   _2     12.000000
                           C   _1     12.000000
                           C   _2     12.000000
                           C          12.000000
                           N          14.003074
                           O   _1     15.994915
                           O   _2     15.994915
                           H   _1      1.007825
                           H   _2      1.007825
                           H   _1      1.007825
                           H   _2      1.007825
                           H           1.007825

                       Total mass:   123.032029 amu
                       Natural abundance:  92.716 %

 Center-of-mass coordinates (a.u.):    0.000000    0.000000   -0.141222


  Atoms and basis sets
  --------------------

  Number of atom types :    4
  Total number of atoms:   14

  Basis set used is "aug-cc-pCVDZ" from the basis set library.

  label    atoms   charge   prim   cont     basis
  ----------------------------------------------------------------------
  C           6    6.0000    39    27      [11s6p2d|5s4p2d]                                   
  N           1    7.0000    39    27      [11s6p2d|5s4p2d]                                   
  O           2    8.0000    39    27      [11s6p2d|5s4p2d]                                   
  H           5    1.0000    11     9      [5s2p|3s2p]                                        
  ----------------------------------------------------------------------
  total:     14   64.0000   406   288
  ----------------------------------------------------------------------
  Spherical harmonic basis used.

  Threshold for neglecting AO integrals:  1.00D-12


  Symmetry Coordinates
  --------------------

  Number of coordinates in each symmetry:    14   14    9    5


   Interatomic separations (in Angstrom):
   --------------------------------------

            C           C   _1      C   _2      C   _1      C   _2      C     
            ------      ------      ------      ------      ------      ------
 C     :    0.000000
 C   _1:    1.391719    0.000000
 C   _2:    1.391719    2.438107    0.000000
 C   _1:    2.392065    1.391780    2.799956    0.000000
 C   _2:    2.392065    2.799956    1.391780    2.421019    0.000000
 C     :    2.757573    2.416230    2.416230    1.395542    1.395542    0.000000
 N     :    1.481505    2.474093    2.474093    3.745665    3.745665    4.239078
 O   _1:    2.616003    3.698845    3.272899    4.953559    4.646394    5.336565
 O   _2:    2.616003    3.272899    3.698845    4.646394    4.953559    5.336565
 H   _1:    2.143694    1.081451    3.407316    2.166922    3.881063    3.407904
 H   _2:    2.143694    3.407316    1.081451    3.881063    2.166922    3.407904
 H   _1:    3.376890    2.145360    3.883675    1.083722    3.403140    2.154719
 H   _2:    3.376890    3.883675    2.145360    3.403140    1.083722    2.154719
 H     :    3.841819    3.396703    3.396703    2.151500    2.151500    1.084247

            N           O   _1      O   _2      H   _1      H   _2      H   _1
            ------      ------      ------      ------      ------      ------
 N     :    0.000000
 O   _1:    1.224763    0.000000
 O   _2:    1.224763    1.217988    0.000000
 H   _1:    2.665523    3.819313    3.061304    0.000000
 H   _2:    2.665523    3.061304    3.819313    4.282121    0.000000
 H   _1:    4.616894    5.841024    5.374194    2.498398    4.964773    0.000000
 H   _2:    4.616894    5.374194    5.841024    4.964773    2.498398    4.298566
 H     :    5.323325    6.414922    6.414922    4.305675    4.305675    2.479943

            H   _2      H     
            ------      ------
 H   _2:    0.000000
 H     :    2.479943    0.000000


  Max    interatomic separation is    6.4149 Angstrom (   12.1224 Bohr)
  between atoms   14 and    8, "H     " and "O   _1".

  Min HX interatomic separation is    1.0815 Angstrom (    2.0436 Bohr)

  Min YX interatomic separation is    1.2180 Angstrom (    2.3017 Bohr)


  Bond distances (Angstrom):
  --------------------------

                  atom 1     atom 2       distance
                  ------     ------       --------
  bond distance:  C   _1     C            1.391719
  bond distance:  C   _2     C            1.391719
  bond distance:  C   _1     C   _1       1.391780
  bond distance:  C   _2     C   _2       1.391780
  bond distance:  C          C   _1       1.395542
  bond distance:  C          C   _2       1.395542
  bond distance:  N          C            1.481505
  bond distance:  O   _1     N            1.224763
  bond distance:  O   _2     N            1.224763
  bond distance:  O   _2     O   _1       1.217988
  bond distance:  H   _1     C   _1       1.081451
  bond distance:  H   _2     C   _2       1.081451
  bond distance:  H   _1     C   _1       1.083722
  bond distance:  H   _2     C   _2       1.083722
  bond distance:  H          C            1.084247


  Bond angles (degrees):
  ----------------------

                  atom 1     atom 2     atom 3         angle
                  ------     ------     ------         -----
  bond angle:     C   _1     C          C   _2       122.311
  bond angle:     C   _1     C          N            118.844
  bond angle:     C   _2     C          N            118.844
  bond angle:     C          C   _1     C   _1       118.493
  bond angle:     C          C   _1     H   _1       119.647
  bond angle:     C   _1     C   _1     H   _1       121.860
  bond angle:     C          C   _2     C   _2       118.493
  bond angle:     C          C   _2     H   _2       119.647
  bond angle:     C   _2     C   _2     H   _2       121.860
  bond angle:     C   _1     C   _1     C            120.192
  bond angle:     C   _1     C   _1     H   _1       119.623
  bond angle:     C          C   _1     H   _1       120.185
  bond angle:     C   _2     C   _2     C            120.192
  bond angle:     C   _2     C   _2     H   _2       119.623
  bond angle:     C          C   _2     H   _2       120.185
  bond angle:     C   _1     C          C   _2       120.319
  bond angle:     C   _1     C          H            119.841
  bond angle:     C   _2     C          H            119.841
  bond angle:     C          N          O   _1       150.183
  bond angle:     C          N          O   _2       150.183
  bond angle:     O   _1     N          O   _2        59.634
  bond angle:     N          O   _1     O   _2        60.183
  bond angle:     N          O   _2     O   _1        60.183




 Principal moments of inertia (u*A**2) and principal axes
 --------------------------------------------------------

   IA     101.249522          0.000000    0.000000    1.000000
   IB     470.307543          1.000000    0.000000    0.000000
   IC     571.557065          0.000000    1.000000    0.000000


 Rotational constants
 --------------------

@    The molecule is planar.

               A                   B                   C

           4991.4212           1074.5713            884.2144 MHz
            0.166496            0.035844            0.029494 cm-1


@  Nuclear repulsion energy :  414.423788928443 Hartree


  Symmetry Orbitals
  -----------------

  Number of orbitals in each symmetry:         115   91   48   34


  Symmetry  A1 ( 1)

    1     C        1s         1
    2     C        1s         2
    3     C        1s         3
    4     C        1s         4
    5     C        1s         5
    6     C        2pz        8
    7     C        2pz       11
    8     C        2pz       14
    9     C        2pz       17
   10     C        3d0       20
   11     C        3d2+      22
   12     C        3d0       25
   13     C        3d2+      27
   14     C        1s        28 +   29
   15     C        1s        30 +   31
   16     C        1s        32 +   33
   17     C        1s        34 +   35
   18     C        1s        36 +   37
   19     C        2px       38 -   39
   20     C        2pz       42 +   43
   21     C        2px       44 -   45
   22     C        2pz       48 +   49
   23     C        2px       50 -   51
   24     C        2pz       54 +   55
   25     C        2px       56 -   57
   26     C        2pz       60 +   61
   27     C        3d0       66 +   67
   28     C        3d1+      68 -   69
   29     C        3d2+      70 +   71
   30     C        3d0       76 +   77
   31     C        3d1+      78 -   79
   32     C        3d2+      80 +   81
   33     C        1s        82 +   83
   34     C        1s        84 +   85
   35     C        1s        86 +   87
   36     C        1s        88 +   89
   37     C        1s        90 +   91
   38     C        2px       92 -   93
   39     C        2pz       96 +   97
   40     C        2px       98 -   99
   41     C        2pz      102 +  103
   42     C        2px      104 -  105
   43     C        2pz      108 +  109
   44     C        2px      110 -  111
   45     C        2pz      114 +  115
   46     C        3d0      120 +  121
   47     C        3d1+     122 -  123
   48     C        3d2+     124 +  125
   49     C        3d0      130 +  131
   50     C        3d1+     132 -  133
   51     C        3d2+     134 +  135
   52     C        1s       136
   53     C        1s       137
   54     C        1s       138
   55     C        1s       139
   56     C        1s       140
   57     C        2pz      143
   58     C        2pz      146
   59     C        2pz      149
   60     C        2pz      152
   61     C        3d0      155
   62     C        3d2+     157
   63     C        3d0      160
   64     C        3d2+     162
   65     N        1s       163
   66     N        1s       164
   67     N        1s       165
   68     N        1s       166
   69     N        1s       167
   70     N        2pz      170
   71     N        2pz      173
   72     N        2pz      176
   73     N        2pz      179
   74     N        3d0      182
   75     N        3d2+     184
   76     N        3d0      187
   77     N        3d2+     189
   78     O        1s       190 +  191
   79     O        1s       192 +  193
   80     O        1s       194 +  195
   81     O        1s       196 +  197
   82     O        1s       198 +  199
   83     O        2px      200 -  201
   84     O        2pz      204 +  205
   85     O        2px      206 -  207
   86     O        2pz      210 +  211
   87     O        2px      212 -  213
   88     O        2pz      216 +  217
   89     O        2px      218 -  219
   90     O        2pz      222 +  223
   91     O        3d0      228 +  229
   92     O        3d1+     230 -  231
   93     O        3d2+     232 +  233
   94     O        3d0      238 +  239
   95     O        3d1+     240 -  241
   96     O        3d2+     242 +  243
   97     H        1s       244 +  245
   98     H        1s       246 +  247
   99     H        1s       248 +  249
  100     H        2px      250 -  251
  101     H        2pz      254 +  255
  102     H        2px      256 -  257
  103     H        2pz      260 +  261
  104     H        1s       262 +  263
  105     H        1s       264 +  265
  106     H        1s       266 +  267
  107     H        2px      268 -  269
  108     H        2pz      272 +  273
  109     H        2px      274 -  275
  110     H        2pz      278 +  279
  111     H        1s       280
  112     H        1s       281
  113     H        1s       282
  114     H        2pz      285
  115     H        2pz      288


  Symmetry  B1 ( 2)

  116     C        2px        6
  117     C        2px        9
  118     C        2px       12
  119     C        2px       15
  120     C        3d1+      21
  121     C        3d1+      26
  122     C        1s        28 -   29
  123     C        1s        30 -   31
  124     C        1s        32 -   33
  125     C        1s        34 -   35
  126     C        1s        36 -   37
  127     C        2px       38 +   39
  128     C        2pz       42 -   43
  129     C        2px       44 +   45
  130     C        2pz       48 -   49
  131     C        2px       50 +   51
  132     C        2pz       54 -   55
  133     C        2px       56 +   57
  134     C        2pz       60 -   61
  135     C        3d0       66 -   67
  136     C        3d1+      68 +   69
  137     C        3d2+      70 -   71
  138     C        3d0       76 -   77
  139     C        3d1+      78 +   79
  140     C        3d2+      80 -   81
  141     C        1s        82 -   83
  142     C        1s        84 -   85
  143     C        1s        86 -   87
  144     C        1s        88 -   89
  145     C        1s        90 -   91
  146     C        2px       92 +   93
  147     C        2pz       96 -   97
  148     C        2px       98 +   99
  149     C        2pz      102 -  103
  150     C        2px      104 +  105
  151     C        2pz      108 -  109
  152     C        2px      110 +  111
  153     C        2pz      114 -  115
  154     C        3d0      120 -  121
  155     C        3d1+     122 +  123
  156     C        3d2+     124 -  125
  157     C        3d0      130 -  131
  158     C        3d1+     132 +  133
  159     C        3d2+     134 -  135
  160     C        2px      141
  161     C        2px      144
  162     C        2px      147
  163     C        2px      150
  164     C        3d1+     156
  165     C        3d1+     161
  166     N        2px      168
  167     N        2px      171
  168     N        2px      174
  169     N        2px      177
  170     N        3d1+     183
  171     N        3d1+     188
  172     O        1s       190 -  191
  173     O        1s       192 -  193
  174     O        1s       194 -  195
  175     O        1s       196 -  197
  176     O        1s       198 -  199
  177     O        2px      200 +  201
  178     O        2pz      204 -  205
  179     O        2px      206 +  207
  180     O        2pz      210 -  211
  181     O        2px      212 +  213
  182     O        2pz      216 -  217
  183     O        2px      218 +  219
  184     O        2pz      222 -  223
  185     O        3d0      228 -  229
  186     O        3d1+     230 +  231
  187     O        3d2+     232 -  233
  188     O        3d0      238 -  239
  189     O        3d1+     240 +  241
  190     O        3d2+     242 -  243
  191     H        1s       244 -  245
  192     H        1s       246 -  247
  193     H        1s       248 -  249
  194     H        2px      250 +  251
  195     H        2pz      254 -  255
  196     H        2px      256 +  257
  197     H        2pz      260 -  261
  198     H        1s       262 -  263
  199     H        1s       264 -  265
  200     H        1s       266 -  267
  201     H        2px      268 +  269
  202     H        2pz      272 -  273
  203     H        2px      274 +  275
  204     H        2pz      278 -  279
  205     H        2px      283
  206     H        2px      286


  Symmetry  B2 ( 3)

  207     C        2py        7
  208     C        2py       10
  209     C        2py       13
  210     C        2py       16
  211     C        3d1-      19
  212     C        3d1-      24
  213     C        2py       40 +   41
  214     C        2py       46 +   47
  215     C        2py       52 +   53
  216     C        2py       58 +   59
  217     C        3d2-      62 -   63
  218     C        3d1-      64 +   65
  219     C        3d2-      72 -   73
  220     C        3d1-      74 +   75
  221     C        2py       94 +   95
  222     C        2py      100 +  101
  223     C        2py      106 +  107
  224     C        2py      112 +  113
  225     C        3d2-     116 -  117
  226     C        3d1-     118 +  119
  227     C        3d2-     126 -  127
  228     C        3d1-     128 +  129
  229     C        2py      142
  230     C        2py      145
  231     C        2py      148
  232     C        2py      151
  233     C        3d1-     154
  234     C        3d1-     159
  235     N        2py      169
  236     N        2py      172
  237     N        2py      175
  238     N        2py      178
  239     N        3d1-     181
  240     N        3d1-     186
  241     O        2py      202 +  203
  242     O        2py      208 +  209
  243     O        2py      214 +  215
  244     O        2py      220 +  221
  245     O        3d2-     224 -  225
  246     O        3d1-     226 +  227
  247     O        3d2-     234 -  235
  248     O        3d1-     236 +  237
  249     H        2py      252 +  253
  250     H        2py      258 +  259
  251     H        2py      270 +  271
  252     H        2py      276 +  277
  253     H        2py      284
  254     H        2py      287


  Symmetry  A2 ( 4)

  255     C        3d2-      18
  256     C        3d2-      23
  257     C        2py       40 -   41
  258     C        2py       46 -   47
  259     C        2py       52 -   53
  260     C        2py       58 -   59
  261     C        3d2-      62 +   63
  262     C        3d1-      64 -   65
  263     C        3d2-      72 +   73
  264     C        3d1-      74 -   75
  265     C        2py       94 -   95
  266     C        2py      100 -  101
  267     C        2py      106 -  107
  268     C        2py      112 -  113
  269     C        3d2-     116 +  117
  270     C        3d1-     118 -  119
  271     C        3d2-     126 +  127
  272     C        3d1-     128 -  129
  273     C        3d2-     153
  274     C        3d2-     158
  275     N        3d2-     180
  276     N        3d2-     185
  277     O        2py      202 -  203
  278     O        2py      208 -  209
  279     O        2py      214 -  215
  280     O        2py      220 -  221
  281     O        3d2-     224 +  225
  282     O        3d1-     226 -  227
  283     O        3d2-     234 +  235
  284     O        3d1-     236 -  237
  285     H        2py      252 -  253
  286     H        2py      258 -  259
  287     H        2py      270 -  271
  288     H        2py      276 -  277

  Symmetries of electric field:  B1 (2)  B2 (3)  A1 (1)

  Symmetries of magnetic field:  B2 (3)  B1 (2)  A2 (4)


                     .---------------------------------------.
                     | Starting in Integral Section (HERMIT) |
                     `---------------------------------------'



 ***************************************************************************************
 ****************** Output from **INTEGRALS input processing (HERMIT) ******************
 ***************************************************************************************


 - Using defaults, no **INTEGRALS input found

 Default print level:        1

 Calculation of one-electron Hamiltonian integrals.

 Center of mass  (bohr):      0.000000000000      0.000000000000     -0.141222092998
 Operator center (bohr):      0.000000000000      0.000000000000      0.000000000000
 Gauge origin    (bohr):      0.000000000000      0.000000000000      0.000000000000
 Dipole origin   (bohr):      0.000000000000      0.000000000000      0.000000000000


     ************************************************************************
     ************************** Output from HERINT **************************
     ************************************************************************



                      Nuclear contribution to dipole moments
                      --------------------------------------

                 au               Debye          C m (/(10**-30)

      z    -17.47624637       -44.42018468      -148.16978712


  Time used in GABGEN     is       0.11 seconds
  Total CPU  time used in HERMIT:   0.39 seconds
  Total wall time used in HERMIT:   0.40 seconds


                        .----------------------------------.
                        | End of Integral Section (HERMIT) |
                        `----------------------------------'



                   .--------------------------------------------.
                   | Starting in Wave Function Section (SIRIUS) |
                   `--------------------------------------------'


 *** Output from Huckel module :

     Using EWMO model:          F
     Using EHT  model:          T
     Number of Huckel orbitals each symmetry:   24   17    6    3

 Huckel EHT eigenvalues for symmetry :  1
          -20.719592     -15.706194     -11.414845     -11.394407     -11.376677
          -11.362578      -1.923621      -1.577192      -1.265968      -1.003651
           -0.831743      -0.733049      -0.639829      -0.621887      -0.539515
           -0.438236      -0.310543      -0.237726      -0.220107      -0.213424
           -0.205737      -0.178517      -0.166794      -0.160392

 Huckel EHT eigenvalues for symmetry :  2
          -20.699416     -11.396450     -11.377841      -1.243249      -1.156452
           -0.882236      -0.595728      -0.533982      -0.484883      -0.417011
           -0.379463      -0.330055      -0.213847      -0.202815      -0.176269
           -0.165469      -0.163311

 Huckel EHT eigenvalues for symmetry :  3
           -0.835835      -0.696900      -0.484737      -0.391526      -0.281565
           -0.236524

 Huckel EHT eigenvalues for symmetry :  4
           -0.505930      -0.460528      -0.288955

 **********************************************************************
 *SIRIUS* a direct, restricted step, second order MCSCF program       *
 **********************************************************************

 
     Date and time (Linux)  : Sat Jan 18 23:32:37 2020
     Host name              : Lab2-333-NPs                            

 Title lines from ".mol" input file:
      nitrobenzene                                                           
      Generated by the Dalton Input File Plugin for Avogadro                 

 Print level on unit LUPRI =   2 is   0
 Print level on unit LUW4  =   2 is   5

@    MC-SCF optimization.

@    Multi-configurational response calculation.
@              Type: complete active space calculation (CAS).

@    This is a combination run starting with
@              a restricted, closed shell Hartree-Fock calculation
@              an MP2 calculation

 Fock matrices are calculated directly without use of integrals on disk.

 Initial molecular orbitals are obtained according to
 ".MOSTART EHT   " input option

     Wave function specification
     ============================
@    Wave function type        --- MC-SCF ---
@    Number of closed shell electrons          54
@    Number of electrons in active shells      10
@    Total charge of the molecule               0

@    Spin multiplicity and 2 M_S                1         0
@    Total number of symmetries                 4 (point group: C2v)
@    Reference state symmetry                   1 (irrep name : A1 )

     Orbital specifications
     ======================
@    Abelian symmetry species          All |    1    2    3    4
@                                          |  A1   B1   B2   A2 
                                       --- |  ---  ---  ---  ---
@    Inactive orbitals                  27 |   15   10    2    0
@    Active orbitals                     7 |    1    1    2    3
@    Secondary orbitals                254 |   99   80   44   31
@    Total number of orbitals          288 |  115   91   48   34
@    Number of basis functions         288 |  115   91   48   34

      ** Automatic occupation of RHF orbitals **

      -- Initial occupation of symmetries is determined from extended Huckel guess.           
      -- Initial occupation of symmetries is :
@    Occupied SCF orbitals              32 |   16   10    4    2

     Optimization information
     ========================
@    Number of determinants                 115
@    Number of orbital rotations           2762
     ------------------------------------------
@    Total number of variables             2877

     Maximum number of macro iterations      40
     Maximum number of micro iterations     960
     Threshold for MCSCF gradient      1.00D-05
     Number of initial trial vectors          2
     Number of initial CI iterations          3
     Number of simultaneous trial vectors     2

@    This calculation converges to state no.   2 for the specified symmetry and spin species.

     Maximum number of NEO/NR iterations  24

    INFORMATION: Switched to "new" integral transformation (from 1988 ;-) )
    because more than 255 basis functions.


 ***********************************************
 ***** DIIS acceleration of SCF iterations *****
 ***********************************************

 C1-DIIS algorithm; max error vectors =    8

 Automatic occupation of symmetries with  64 electrons.

 Iter     Total energy    Error norm  Delta(E)    SCF occupation
 -----------------------------------------------------------------------------
   1  Screening settings (-IFTHRS, JTDIIS, DIFDEN, times)   -8    1    T  2.59D+01  2.60D+01
@  1  -432.286717245       6.08D+00  -4.32D+02    16  10   4   2
      Virial theorem: -V/T =      1.999934
@    MULPOP   C       0.45; C   _1  0.10; C   _2  0.10; C   _1  0.26; C   _2  0.26; C       0.19; N       0.12; O   _1 -0.28; O   _2 -0.28; H   _1 -0.19; 
@             H   _2 -0.19; H   _1 -0.18; H   _2 -0.18; H      -0.18; 
   1  Level shift: doubly occupied orbital energies shifted by -2.00D-01
 -----------------------------------------------------------------------------
   2  Screening settings (-IFTHRS, JTDIIS, DIFDEN, times)   -8    2    T  2.63D+01  2.63D+01
@  2  -433.829972057       1.41D+00  -1.54D+00    16  10   4   2
      Virial theorem: -V/T =      1.994904
@    MULPOP   C       1.51; C   _1  0.11; C   _2  0.11; C   _1  0.39; C   _2  0.39; C       0.37; N       0.42; O   _1 -0.58; O   _2 -0.58; H   _1 -0.45; 
@             H   _2 -0.45; H   _1 -0.41; H   _2 -0.41; H      -0.42; 
   2  Level shift: doubly occupied orbital energies shifted by -5.00D-02
 -----------------------------------------------------------------------------
   3  Screening settings (-IFTHRS, JTDIIS, DIFDEN, times)   -8    3    T  2.59D+01  2.59D+01
@  3  -433.941932461       4.34D-01  -1.12D-01    16  10   4   2
      Virial theorem: -V/T =      1.999625
@    MULPOP   C       1.95; C   _1  0.01; C   _2  0.01; C   _1  0.55; C   _2  0.55; C       0.33; N       0.35; O   _1 -0.67; O   _2 -0.67; H   _1 -0.51; 
@             H   _2 -0.51; H   _1 -0.46; H   _2 -0.46; H      -0.47; 
   3  Level shift: doubly occupied orbital energies shifted by -2.50D-02
 -----------------------------------------------------------------------------
   4  Screening settings (-IFTHRS, JTDIIS, DIFDEN, times)   -8    4    T  2.57D+01  2.57D+01
@  4  -433.954628744       1.46D-01  -1.27D-02    16  10   4   2
      Virial theorem: -V/T =      1.998942
@    MULPOP   C       1.97; C   _1 -0.03; C   _2 -0.03; C   _1  0.57; C   _2  0.57; C       0.33; N       0.28; O   _1 -0.66; O   _2 -0.66; H   _1 -0.50; 
@             H   _2 -0.50; H   _1 -0.45; H   _2 -0.45; H      -0.47; 
   4  Level shift: doubly occupied orbital energies shifted by -1.25D-02
 -----------------------------------------------------------------------------
   5  Screening settings (-IFTHRS, JTDIIS, DIFDEN, times)  -10    5    F  2.62D+01  2.63D+01
@  5  -433.956017355       4.82D-02  -1.39D-03    16  10   4   2
      Virial theorem: -V/T =      1.998626
@    MULPOP   C       1.99; C   _1 -0.04; C   _2 -0.04; C   _1  0.57; C   _2  0.57; C       0.31; N       0.28; O   _1 -0.66; O   _2 -0.66; H   _1 -0.49; 
@             H   _2 -0.49; H   _1 -0.44; H   _2 -0.44; H      -0.46; 
 -----------------------------------------------------------------------------
   6  Screening settings (-IFTHRS, JTDIIS, DIFDEN, times)  -10    6    T  2.60D+01  2.60D+01
@  6  -433.956197099       1.11D-02  -1.80D-04    16  10   4   2
      Virial theorem: -V/T =      1.998741
@    MULPOP   C       2.00; C   _1 -0.04; C   _2 -0.04; C   _1  0.57; C   _2  0.57; C       0.32; N       0.28; O   _1 -0.66; O   _2 -0.66; H   _1 -0.49; 
@             H   _2 -0.49; H   _1 -0.44; H   _2 -0.44; H      -0.46; 
 -----------------------------------------------------------------------------
   7  Screening settings (-IFTHRS, JTDIIS, DIFDEN, times)  -13    7    F  2.66D+01  2.66D+01
@  7  -433.956211079       3.58D-03  -1.40D-05    16  10   4   2
      Virial theorem: -V/T =      1.998736
@    MULPOP   C       2.00; C   _1 -0.04; C   _2 -0.04; C   _1  0.57; C   _2  0.57; C       0.32; N       0.27; O   _1 -0.66; O   _2 -0.66; H   _1 -0.49; 
@             H   _2 -0.49; H   _1 -0.44; H   _2 -0.44; H      -0.46; 
 -----------------------------------------------------------------------------
   8  Screening settings (-IFTHRS, JTDIIS, DIFDEN, times)  -13    8    T  2.63D+01  2.63D+01
@  8  -433.956213042       1.61D-03  -1.96D-06    16  10   4   2
      Virial theorem: -V/T =      1.998731
@    MULPOP   C       2.00; C   _1 -0.04; C   _2 -0.04; C   _1  0.57; C   _2  0.57; C       0.32; N       0.27; O   _1 -0.66; O   _2 -0.66; H   _1 -0.49; 
@             H   _2 -0.49; H   _1 -0.44; H   _2 -0.44; H      -0.46; 
 -----------------------------------------------------------------------------
   9  Screening settings (-IFTHRS, JTDIIS, DIFDEN, times)  -13    9    T  2.62D+01  2.62D+01
@  9  -433.956213590       6.04D-04  -5.48D-07    16  10   4   2
      Virial theorem: -V/T =      1.998733
@    MULPOP   C       2.00; C   _1 -0.04; C   _2 -0.04; C   _1  0.57; C   _2  0.57; C       0.32; N       0.27; O   _1 -0.66; O   _2 -0.66; H   _1 -0.49; 
@             H   _2 -0.49; H   _1 -0.44; H   _2 -0.44; H      -0.46; 
 -----------------------------------------------------------------------------
  10  Screening settings (-IFTHRS, JTDIIS, DIFDEN, times)  -13   10    T  2.62D+01  2.62D+01
@ 10  -433.956213725       2.67D-04  -1.34D-07    16  10   4   2
      Virial theorem: -V/T =      1.998734
@    MULPOP   C       2.00; C   _1 -0.04; C   _2 -0.04; C   _1  0.57; C   _2  0.57; C       0.32; N       0.27; O   _1 -0.66; O   _2 -0.66; H   _1 -0.49; 
@             H   _2 -0.49; H   _1 -0.44; H   _2 -0.44; H      -0.46; 
 -----------------------------------------------------------------------------
  11  Screening settings (-IFTHRS, JTDIIS, DIFDEN, times)  -13   11    T  2.61D+01  2.61D+01
@ 11  -433.956213748       1.23D-04  -2.28D-08    16  10   4   2
      Virial theorem: -V/T =      1.998733
@    MULPOP   C       2.00; C   _1 -0.04; C   _2 -0.04; C   _1  0.57; C   _2  0.57; C       0.32; N       0.27; O   _1 -0.66; O   _2 -0.66; H   _1 -0.49; 
@             H   _2 -0.49; H   _1 -0.44; H   _2 -0.44; H      -0.46; 
 -----------------------------------------------------------------------------
  12  Screening settings (-IFTHRS, JTDIIS, DIFDEN, times)  -13   12    T  2.61D+01  2.61D+01
@ 12  -433.956213752       4.12D-05  -4.42D-09    16  10   4   2
      Virial theorem: -V/T =      1.998734
@    MULPOP   C       2.00; C   _1 -0.04; C   _2 -0.04; C   _1  0.57; C   _2  0.57; C       0.32; N       0.27; O   _1 -0.66; O   _2 -0.66; H   _1 -0.49; 
@             H   _2 -0.49; H   _1 -0.44; H   _2 -0.44; H      -0.46; 
 -----------------------------------------------------------------------------
  13  Screening settings (-IFTHRS, JTDIIS, DIFDEN, times)  -13   13    T  2.60D+01  2.60D+01
@ 13  -433.956213752       9.08D-06  -3.64D-10    16  10   4   2
      Virial theorem: -V/T =      1.998733
@    MULPOP   C       2.00; C   _1 -0.04; C   _2 -0.04; C   _1  0.57; C   _2  0.57; C       0.32; N       0.27; O   _1 -0.66; O   _2 -0.66; H   _1 -0.49; 
@             H   _2 -0.49; H   _1 -0.44; H   _2 -0.44; H      -0.46; 
 -----------------------------------------------------------------------------
  14  Screening settings (-IFTHRS, JTDIIS, DIFDEN, times)  -13   14    T  2.59D+01  2.59D+01
@ 14  -433.956213752       3.98D-06  -1.35D-11    16  10   4   2
      Virial theorem: -V/T =      1.998733
@    MULPOP   C       2.00; C   _1 -0.04; C   _2 -0.04; C   _1  0.57; C   _2  0.57; C       0.32; N       0.27; O   _1 -0.66; O   _2 -0.66; H   _1 -0.49; 
@             H   _2 -0.49; H   _1 -0.44; H   _2 -0.44; H      -0.46; 
 -----------------------------------------------------------------------------
  15  Screening settings (-IFTHRS, JTDIIS, DIFDEN, times)  -13   15    T  2.57D+01  2.57D+01
@ 15  -433.956213752       1.15D-06  -1.36D-12    16  10   4   2
      Virial theorem: -V/T =      1.998733
@    MULPOP   C       2.00; C   _1 -0.04; C   _2 -0.04; C   _1  0.57; C   _2  0.57; C       0.32; N       0.27; O   _1 -0.66; O   _2 -0.66; H   _1 -0.49; 
@             H   _2 -0.49; H   _1 -0.44; H   _2 -0.44; H      -0.46; 
 -----------------------------------------------------------------------------
  16  Screening settings (-IFTHRS, JTDIIS, DIFDEN, times)  -13   16    T  2.57D+01  2.57D+01
@ 16  -433.956213752       5.97D-07   1.36D-12    16  10   4   2

@ *** DIIS converged in  16 iterations !
@     Converged SCF energy, gradient:   -433.956213752487    5.97D-07
    - total time used in SIRFCK :              0.00 seconds

 --- Writing SIRIFC interface file

 CPU and wall time for SCF :     417.516     417.551


 ----- Output from SIRIUS MP2 module -----

 Reference: H.J.Aa.Jensen, P.Jorgensen, H.Agren, and J.Olsen,
            J. Chem. Phys. 88, 3834 (1988); 89, 5354 (1988)

 Checking that the closed shell orbitals are canonical Hartree-Fock orbitals

    Number of electrons  :   64
    Closed shell orbitals:   16   10    4    2

 Generating Fock matrix

 Hartree-Fock electronic energy:        -848.380002680934
 Hartree-Fock total      energy:        -433.956213752491

 Hartree-Fock orbital energies, symmetry 1 ( A1 ),   16 occupied SCF orbitals

       -20.69038345   -15.67499838   -11.34939326   -11.26452203   -11.25779489
       -11.24595136    -1.87821149    -1.20067673    -1.12023218    -1.01149919
        -0.86858441    -0.78216605    -0.71419469    -0.68401226    -0.62755186
        -0.53162096     0.03310368     0.04548541     0.06348652     0.10805273
         0.12419137     0.14134648     0.15543304     0.15741168     0.17026806
         0.18373938     0.20396812     0.26154374     0.26800672     0.29142097
         0.32156364     0.33523970     0.34506237     0.35996467     0.36516545
         0.39210825     0.41012322     0.42462964     0.45572022     0.47833503
         0.51265251     0.57123821     0.57560846     0.61902791     0.62488780
         0.66822639     0.67548943     0.69138716     0.71897806     0.76068104
         0.78797109     0.84869168     0.90322215     0.91041035     0.95806071
         0.99374030     1.01991862     1.06692976     1.08585996     1.10289312
         1.19376172     1.29345272     1.33586836     1.41183818     1.49494003
         1.53926528     1.54627658     1.58964955     1.60415243     1.63166942
         1.71378948     1.73384591     1.76807642     1.79728110     1.87022613
         1.96004743     1.99330534     2.03381672     2.03839583     2.21134466
         2.23694004     2.30060029     2.40227698     2.40978981     2.44115548
         2.51861504     2.58331745     2.68609922     2.75043409     2.83932953
         2.91364475     2.96555056     3.05504032     3.16263359     3.23802037
         3.36380839     3.51067415     3.72433660     3.95871707     4.18255615
        19.82166998    20.33059265    20.47216211    20.64052111    23.37057686
        23.43901505    23.48768109    23.81168617    23.91154602    24.13006052
        27.35983775    31.71108162    35.80289066    39.78504086    40.08783389

 Hartree-Fock orbital energies, symmetry 2 ( B1 ),   10 occupied SCF orbitals

       -20.68971992   -11.26449918   -11.25780892    -1.20514831    -1.03948350
        -0.85390346    -0.66367511    -0.61627363    -0.60797479    -0.51841549
         0.03875608     0.05706149     0.13300184     0.13708299     0.15117073
         0.16066201     0.18079506     0.20766922     0.25749552     0.29363275
         0.30417073     0.31093241     0.33238620     0.35551685     0.37264697
         0.39244898     0.41310693     0.43296978     0.47740345     0.55283205
         0.58106056     0.58350935     0.64476851     0.65976690     0.68455743
         0.70368739     0.76264469     0.77836276     0.83383405     0.85262007
         0.88350491     0.89593118     1.03455295     1.17033386     1.23352737
         1.32409195     1.34654489     1.37470940     1.49039834     1.49919002
         1.50984978     1.56828037     1.60751679     1.65151920     1.72166895
         1.76901603     1.78656620     1.82898768     1.87214343     1.93207936
         2.05557441     2.14459702     2.17523723     2.31748301     2.33307512
         2.39086904     2.45653593     2.50156568     2.58370035     2.73182903
         2.90973123     2.94683982     3.16074058     3.34216523     3.36230705
         3.42963897     3.90652531     4.24195564     4.56321967    20.29663496
        20.47987480    22.88109926    23.33142444    23.39579269    23.96132679
        24.13376347    24.32070895    31.33170193    35.68402294    39.90476684
        39.93328829

 Hartree-Fock orbital energies, symmetry 3 ( B2 ),    4 occupied SCF orbitals

        -0.86064296    -0.54054771    -0.42553194    -0.29773012     0.10483621
         0.11987690     0.13887658     0.18531916     0.19073700     0.23493643
         0.29990336     0.34048314     0.39193827     0.46760380     0.54716680
         0.59962339     0.67196893     0.72030821     0.79560950     0.87731176
         0.90699464     0.93256034     0.95218416     1.04411947     1.09288913
         1.15164689     1.17912706     1.48116294     1.52574529     1.63010186
         1.67933814     1.71783285     1.84482431     1.93770467     2.07524244
         2.09826169     2.17890742     2.30938164     2.57492469     2.69781140
         3.23335077     3.83466875    22.56513324    22.71438179    22.84415190
        23.04206474    30.74785466    39.44244715

 Hartree-Fock orbital energies, symmetry 4 ( A2 ),    2 occupied SCF orbitals

        -0.46848304    -0.35884057     0.09390278     0.13701780     0.19091588
         0.28144328     0.41857804     0.49474289     0.55114456     0.65854642
         0.74519426     0.88933533     0.90982762     0.94810422     1.04185024
         1.08111839     1.23050399     1.26808978     1.44353007     1.57712220
         1.69209313     1.70268198     1.88072807     1.90586806     2.11583188
         2.19196685     2.36144916     2.53643688     2.62858284     3.80993892
         4.00869252    22.70932082    22.87858223    39.38170111

    E(LUMO) :     0.03310368   (in symmetry 1)
  - E(HOMO) :    -0.29773012   (in symmetry 3)
  --------------------------
    gap     :     0.33083380

---> (Re)generating AOTWOINT


     ************************************************************************
     ************************** Output from HERINT **************************
     ************************************************************************


 Threshold for neglecting two-electron integrals:  1.00D-12
 HERMIT - Number of two-electron integrals written:   198998897 ( 23.0% )
 HERMIT - Megabytes written:                           3037.749

  Time used in TWOINT     is      35.86 seconds

 2-el. integral transformation level 5: Total CPU and WALL times (sec)     382.469     383.946

 MP2 move   0.915668 electrons to unoccupied HF orbitals


@   Hartree-Fock total energy   :          -433.9562137525
@   + MP2 contribution          :            -1.6728420283
@   = MP2 second order energy   :          -435.6290557808

 Natural orbital occupation numbers, symmetry 1 (irrep A1 )
 Sum =    31.97512679; RHF =    32.00000000; Difference =    -0.02487321

         1.99928773     1.99906125     1.99876107     1.99875746     1.99875197
         1.99874835     1.98888816     1.98420202     1.97976470     1.97428139
         1.96969350     1.96628403     1.96329467     1.95789148     1.95287335
         1.94516646     0.03797838     0.02602985     0.02428052     0.02282076
         0.01901594     0.01744121     0.01663831     0.01360218     0.01340917
         0.01229374     0.00999129     0.00893729     0.00829701     0.00782812
         0.00682940     0.00645708     0.00467957     0.00437599     0.00333938
         0.00298589     0.00288736     0.00265953     0.00236426     0.00206720
         0.00191662     0.00169519     0.00152706     0.00129784     0.00127734
         0.00117055     0.00106923     0.00096229     0.00073710     0.00065729
         0.00061819     0.00051191     0.00048898     0.00044676     0.00042479
         0.00041467     0.00039873     0.00037490     0.00035598     0.00034258
         0.00033471     0.00031939     0.00031622     0.00030455     0.00028167
         0.00026122     0.00023331     0.00022570     0.00021877     0.00019837
         0.00019342     0.00018401     0.00017699     0.00017501     0.00016779
         0.00016059     0.00015276     0.00014453     0.00013949     0.00013652
         0.00013307     0.00012853     0.00011739     0.00010505     0.00010169
         0.00009355     0.00007879     0.00006601     0.00005911     0.00005249
         0.00004571     0.00003647     0.00003401     0.00002646     0.00002103
         0.00001716     0.00001406     0.00001260     0.00001084     0.00000972
         0.00000931     0.00000756     0.00000685     0.00000415     0.00000241
         0.00000127     0.00000104     0.00000074     0.00000061     0.00000032
         0.00000018     0.00000009    -0.00000008    -0.00000052    -0.00000090

 Natural orbital occupation numbers, symmetry 2 (irrep B1 )
 Sum =    20.01083381; RHF =    20.00000000; Difference =     0.01083381

         1.99928408     1.99875753     1.99874967     1.98136850     1.97998045
         1.97254585     1.96081153     1.95557275     1.95424381     1.94796190
         0.04698262     0.03305006     0.02498943     0.02323633     0.01704157
         0.01641936     0.01573864     0.01183219     0.00956174     0.00910635
         0.00804808     0.00557097     0.00533260     0.00350334     0.00322108
         0.00305580     0.00251022     0.00217278     0.00216112     0.00167024
         0.00162788     0.00151158     0.00135514     0.00131173     0.00105362
         0.00098805     0.00067972     0.00064361     0.00054307     0.00045823
         0.00042525     0.00040058     0.00037169     0.00034499     0.00033624
         0.00029815     0.00029088     0.00028000     0.00025002     0.00021548
         0.00020894     0.00019754     0.00018888     0.00018310     0.00018016
         0.00017173     0.00016737     0.00016269     0.00015179     0.00014531
         0.00013993     0.00013363     0.00012450     0.00012030     0.00011043
         0.00010222     0.00009341     0.00007822     0.00005267     0.00004773
         0.00004051     0.00003125     0.00003058     0.00002371     0.00001635
         0.00001367     0.00001202     0.00001113     0.00000933     0.00000855
         0.00000446     0.00000303     0.00000141     0.00000132     0.00000058
         0.00000036     0.00000027     0.00000013    -0.00000009    -0.00000065
        -0.00000118

 Natural orbital occupation numbers, symmetry 3 (irrep B2 )
 Sum =     7.99315482; RHF =     8.00000000; Difference =    -0.00684518

         1.97773414     1.95907605     1.94529020     1.90751940     0.07091199
         0.03196623     0.01661520     0.01436436     0.01091089     0.01020281
         0.00897980     0.00714831     0.00689606     0.00534280     0.00403958
         0.00334030     0.00225756     0.00162760     0.00147388     0.00091352
         0.00089698     0.00070725     0.00055646     0.00048428     0.00047468
         0.00042981     0.00039058     0.00034806     0.00030479     0.00024537
         0.00021469     0.00020178     0.00019209     0.00018267     0.00017255
         0.00013790     0.00012633     0.00011832     0.00009931     0.00009357
         0.00007788     0.00005556     0.00002454     0.00001836     0.00001048
         0.00000752     0.00000175    -0.00002943

 Natural orbital occupation numbers, symmetry 4 (irrep A2 )
 Sum =     4.02088459; RHF =     4.00000000; Difference =     0.02088459

         1.96807554     1.91300397     0.06960578     0.01596636     0.01103646
         0.00971235     0.00731686     0.00580641     0.00437933     0.00374928
         0.00274834     0.00202549     0.00146641     0.00096646     0.00079622
         0.00074487     0.00062997     0.00053692     0.00041541     0.00037607
         0.00031289     0.00023826     0.00019778     0.00019046     0.00015641
         0.00013482     0.00012440     0.00009988     0.00007510     0.00005084
         0.00002226     0.00001898     0.00000838    -0.00010439

 Time used for MP2 natural orbitals :     412.109 CPU seconds,     413.593 wall seconds.

 CPU and wall time for MP2 :     412.109     413.593


        SIRIUS MCSCF optimization (SIROPT)
 ================================================


 Fock matrix screening setting for SIRCNO: IFTHRS =    9


 ----- Output from SIRIUS CI module (CICTL) -----




 2-el. integral transformation level 0: Total CPU and WALL times (sec)      91.828      91.836


 --- SIRCI.CIST1: plus combination of all degenerate
                 configurations is used as start vectors.


 (CIST1) 18 lowest diagonal elements:

 Element no. Config.no.    Active energy      Total energy

         1 :          1    -15.4240879585   -433.9444268231
         2 :          2    -15.1313848891   -433.6517237537
         3 :          6    -15.1313848891   -433.6517237537
         4 :          3    -14.8767322893   -433.3970711539
         5 :         11    -14.8767322893   -433.3970711539
         6 :          7    -14.8239430444   -433.3442819090
         7 :         44    -14.8041724255   -433.3245112901
         8 :         45    -14.6995411857   -433.2198800503
         9 :         49    -14.6995411857   -433.2198800503
        10 :         73    -14.5824974868   -433.1028363514
        11 :        109    -14.5824974868   -433.1028363514
        12 :         50    -14.5669595602   -433.0872984248
        13 :          8    -14.5665730154   -433.0869118800
        14 :         12    -14.5665730154   -433.0869118800
        15 :         56    -14.5236328171   -433.0439716817
        16 :         80    -14.4369580483   -432.9572969129
        17 :        110    -14.4369580483   -432.9572969129
        18 :          4    -14.4180912957   -432.9384301603


 Convergence threshold for CI optimization :     0.00000500



 *** Reached maximum number of CI iterations:    3
              1 CI roots are not converged.


@ Final CI energies and residuals in symmetry 1 (irrep A1 )
@    1     -433.968179800394466       5.38D-03
@    2     -433.605522603465261       5.30D-04
@    3     -433.408870761232663       1.32D-02
@    4     -433.377580055785188       2.98D-02
@    5     -433.350874691335548       4.24D-02
@    6     -433.130810938387015       4.46D-02

   --- OUTPUT FROM SIRCNO     Keyword = FD+NO 


 Occupations of CAS natural orbitals:

 Symmetry  1 ( irrep A1  in C2v )

   1.989454797

 Symmetry  2 ( irrep B1  in C2v )

   0.011194341

 Symmetry  3 ( irrep B2  in C2v )

   1.963355877   1.935754334

 Symmetry  4 ( irrep A2  in C2v )

   1.999346498   1.000646877   1.100247276


 --- MACRO ITERATION  1 ---
 --------------------------

 2-el. integral transformation level 3: Total CPU and WALL times (sec)      93.281      93.284

 Fock matrix screening setting for this macro iteration: 10^( -9)

 Total MCSCF energy       :          -433.605522602120402  (MACRO    1)

 - Nuclear repulsion      :           414.423788928442832
 - Inactive energy        :          -832.944127792832205
 - Active energy          :           -15.085183737731004

 Norm of total gradient   :             0.647298138304
 -    of CI gradient      :             0.001059543878
 -    of orbital gradient :             0.647297271135
      Virial theorem: -V/T =      1.985458
@    MULPOP   C       1.95; C   _1  0.11; C   _2  0.11; C   _1  0.48; C   _2  0.48; C       0.40; N       1.16; O   _1 -1.09; O   _2 -1.09; H   _1 -0.54; 
@             H   _2 -0.54; H   _1 -0.47; H   _2 -0.47; H      -0.49; 

 (SIRNEO) iteration (  1,  4)
 Micro iteration termination criterion met, EVAL(ISTATE+1) = -3.79D-03

   --- OUTPUT FROM SIRCNO     Keyword = FD+NO 


 Occupations of CAS natural orbitals:

 Symmetry  1 ( irrep A1  in C2v )

   1.989505507

 Symmetry  2 ( irrep B1  in C2v )

   0.011153949

 Symmetry  3 ( irrep B2  in C2v )

   1.963086172   1.936891328

 Symmetry  4 ( irrep A2  in C2v )

   1.999334175   0.958899040   1.141129830


 --- MACRO ITERATION  2 ---
 --------------------------

 2-el. integral transformation level 3: Total CPU and WALL times (sec)      93.719      93.705

 Fock matrix screening setting for this macro iteration: 10^( -9)

 Total MCSCF energy       :          -433.696553394462285  (MACRO    2)

 - Nuclear repulsion      :           414.423788928442832
 - Inactive energy        :          -832.859982769853559
 - Active energy          :           -15.260359553051535

 Norm of total gradient   :             0.194688355271
 -    of CI gradient      :             0.091740220472
 -    of orbital gradient :             0.171718629233
      Virial theorem: -V/T =      1.985651
@    MULPOP   C       2.30; C   _1 -0.07; C   _2 -0.07; C   _1  0.51; C   _2  0.51; C       0.47; N       1.31; O   _1 -1.27; O   _2 -1.27; H   _1 -0.53; 
@             H   _2 -0.53; H   _1 -0.46; H   _2 -0.46; H      -0.43; 

 Residual norm when dim(red L) =  10
 NEO root     CSF        orbital          total
    1     0.02652957     0.07113406     0.07592017 converged

 (NEONEX) NEO auxiliary root no.  1 is converged.

 Residual norm when dim(red L) =  12
 NEO root     CSF        orbital          total
    2     0.01249584     0.00925889     0.01555227 converged

 (NEONEX) NEO vector is converged.

   --- OUTPUT FROM SIRCNO     Keyword = FD+NO 


 Occupations of CAS natural orbitals:

 Symmetry  1 ( irrep A1  in C2v )

   1.954363054

 Symmetry  2 ( irrep B1  in C2v )

   0.046970576

 Symmetry  3 ( irrep B2  in C2v )

   1.963215274   1.939360356

 Symmetry  4 ( irrep A2  in C2v )

   1.998652304   0.980092286   1.117346151


 --- MACRO ITERATION  3 ---
 --------------------------

 2-el. integral transformation level 3: Total CPU and WALL times (sec)      92.891      92.912

 Fock matrix screening setting for this macro iteration: 10^( -9)

 Total MCSCF energy       :          -433.710209591381840  (MACRO    3)

 - Nuclear repulsion      :           414.423788928442832
 - Inactive energy        :          -832.453011390477059
 - Active energy          :           -15.680987129347640

 Norm of total gradient   :             0.131462713678
 -    of CI gradient      :             0.125305567313
 -    of orbital gradient :             0.039761286295
      Virial theorem: -V/T =      1.983089
@    MULPOP   C       2.40; C   _1 -0.13; C   _2 -0.13; C   _1  0.50; C   _2  0.50; C       0.46; N       1.54; O   _1 -1.41; O   _2 -1.41; H   _1 -0.50; 
@             H   _2 -0.50; H   _1 -0.44; H   _2 -0.44; H      -0.43; 

 Residual norm when dim(red L) =   8
 NEO root     CSF        orbital          total
    2     0.02210687     0.00838955     0.02364526 converged

 (NEONEX) NEO vector is converged.

   --- OUTPUT FROM SIRCNO     Keyword = FD+NO 


 Occupations of CAS natural orbitals:

 Symmetry  1 ( irrep A1  in C2v )

   1.970144844

 Symmetry  2 ( irrep B1  in C2v )

   0.030893065

 Symmetry  3 ( irrep B2  in C2v )

   1.970999371   1.948651418

 Symmetry  4 ( irrep A2  in C2v )

   1.998949580   0.964488916   1.115872806


 --- MACRO ITERATION  4 ---
 --------------------------

 2-el. integral transformation level 3: Total CPU and WALL times (sec)      93.453      93.468

 Fock matrix screening setting for this macro iteration: 10^( -9)

 Total MCSCF energy       :          -433.713065232497911  (MACRO    4)

 - Nuclear repulsion      :           414.423788928442832
 - Inactive energy        :          -832.411996189530555
 - Active energy          :           -15.724857971410202

 Norm of total gradient   :             0.025301687758
 -    of CI gradient      :             0.023450567654
 -    of orbital gradient :             0.009499804215
      Virial theorem: -V/T =      1.982548
@    MULPOP   C       2.37; C   _1 -0.12; C   _2 -0.12; C   _1  0.51; C   _2  0.51; C       0.45; N       1.55; O   _1 -1.42; O   _2 -1.42; H   _1 -0.50; 
@             H   _2 -0.50; H   _1 -0.44; H   _2 -0.44; H      -0.43; 

 Residual norm when dim(red L) =  10
 NEO root     CSF        orbital          total
    1     0.07018363     0.02253768     0.07371356 converged

 (NEONEX) NEO auxiliary root no.  1 is converged.

 Residual norm when dim(red L) =  20
 NEO root     CSF        orbital          total
    2     0.00047697     0.00028421     0.00055523 converged

 (NEONEX) NEO vector is converged.

   --- OUTPUT FROM SIRCNO     Keyword = FD+NO 


 Occupations of CAS natural orbitals:

 Symmetry  1 ( irrep A1  in C2v )

   1.971563049

 Symmetry  2 ( irrep B1  in C2v )

   0.029771417

 Symmetry  3 ( irrep B2  in C2v )

   1.969122047   1.933650208

 Symmetry  4 ( irrep A2  in C2v )

   1.998640865   0.991730339   1.105522075

 Local region, DONR activated


 --- MACRO ITERATION  5 ---
 --------------------------

 2-el. integral transformation level 3: Total CPU and WALL times (sec)      93.500      93.496

 Fock matrix screening setting for this macro iteration: 10^( -9)

 Total MCSCF energy       :          -433.713312178609044  (MACRO    5)

 - Nuclear repulsion      :           414.423788928442832
 - Inactive energy        :          -832.385856146059609
 - Active energy          :           -15.751244960992294

 Norm of total gradient   :             0.000932625269
 -    of CI gradient      :             0.000686857279
 -    of orbital gradient :             0.000630885862
      Virial theorem: -V/T =      1.982525
@    MULPOP   C       2.40; C   _1 -0.12; C   _2 -0.12; C   _1  0.51; C   _2  0.51; C       0.45; N       1.52; O   _1 -1.42; O   _2 -1.42; H   _1 -0.50; 
@             H   _2 -0.50; H   _1 -0.44; H   _2 -0.44; H      -0.43; 

 ***WARNING from SNRST:    2 negative elements of CI diagonal

 Dimension    CSF residual   orb. residual  total residual   conv. thresh.
        15      2.9861D-06      9.0467D-06      9.5267D-06      9.8000D-06

 *** Newton-Raphson eq.s converged

   --- OUTPUT FROM SIRCNO     Keyword = FD+NO 


 Occupations of CAS natural orbitals:

 Symmetry  1 ( irrep A1  in C2v )

   1.971612079

 Symmetry  2 ( irrep B1  in C2v )

   0.029721747

 Symmetry  3 ( irrep B2  in C2v )

   1.969004306   1.933331128

 Symmetry  4 ( irrep A2  in C2v )

   1.998640946   0.992808883   1.104880911

 Local region, DONR activated


 --- MACRO ITERATION  6 ---
 --------------------------

 2-el. integral transformation level 3: Total CPU and WALL times (sec)      93.391      93.392

 Fock matrix screening setting for this macro iteration: 10^( -9)

 Total MCSCF energy       :          -433.713312524297407  (MACRO    6)

 - Nuclear repulsion      :           414.423788928442832
 - Inactive energy        :          -832.385739484907162
 - Active energy          :           -15.751361967833097

 Norm of total gradient   :             0.000009641454
 -    of CI gradient      :             0.000003255693
 -    of orbital gradient :             0.000009075136
      Virial theorem: -V/T =      1.982531
@    MULPOP   C       2.40; C   _1 -0.12; C   _2 -0.12; C   _1  0.51; C   _2  0.51; C       0.45; N       1.52; O   _1 -1.42; O   _2 -1.42; H   _1 -0.50; 
@             H   _2 -0.50; H   _1 -0.44; H   _2 -0.44; H      -0.43; 

 *** Optimization control: MCSCF converged ***
     Number of macro iterations used            6
     Number of micro iterations used           42
     Total number of CPU seconds used      2253.81

 CPU and wall time for MCSCF :    2253.812    2254.070


                     .----------------------------------------.
                     | --- SIRIUS OPTIMIZATION STATISTICS --- |
                     `----------------------------------------'


 
     Date and time (Linux)  : Sun Jan 19 00:24:02 2020
     Host name              : Lab2-333-NPs                            


  ITER ITMIC     EMCSCF           GRDNRM        RATIO      STPLNG
 ---------------------------------------------------------------------
    1    4   -433.605522602120   0.6472981383  0.000000   0.7127793593
    2    6   -433.696553394462   0.1946883553  0.749995   0.6581599558
    3    3   -433.710209591382   0.1314627137  0.534173   0.1174424829
    4   14   -433.713065232498   0.0253016878  1.035112   0.0492285565
    5   15   -433.713312178609   0.0009326253  1.015209   0.0017592469
    6    0   -433.713312524297   0.0000096415  1.000899   0.0000000000


  ITER  INDGCM  GCIMAX      GCINRM     INDGOM  GOBMAX      GOBNRM      GRDNRM
 ------------------------------------------------------------------------------
    1     25    0.000661    0.001060   2745    0.147607    0.647297    0.647298
    2     32   -0.063127    0.091740   2736   -0.030843    0.171719    0.194688
    3     32    0.088350    0.125306   1581    0.011782    0.039761    0.131463
    4     25   -0.012259    0.023451      7   -0.001330    0.009500    0.025302
    5     32    0.000301    0.000687   2737    0.000162    0.000631    0.000933
    6     24    0.000001    0.000003   2539    0.000001    0.000009    0.000010


  ITER ITMIC NCLIN NOLIN   TIMMAC    TIMITR    TIMMIC    TIMLIN    TIMMIC/ITMIC
 ------------------------------------------------------------------------------

    1     4     2     6    280.50     93.28    158.84    130.38     39.71
    2     6     5     6    335.27     93.72    213.22    184.84     35.54
    3     3     2     5    250.94     92.89    129.70    101.27     43.23
    4    14     9    10    555.94     93.45    434.09    405.64     31.01
    5    15     7     8    562.64     93.50    440.81    412.38     29.39
    6     0     0     0    122.22     93.39      0.00      0.00


 ITER         EMY                 EACTIV              EMCSCF

    1   -832.944127792832    -15.085183737731   -433.605522602120
    2   -832.859982769854    -15.260359553052   -433.696553394462
    3   -832.453011390477    -15.680987129348   -433.710209591382
    4   -832.411996189531    -15.724857971410   -433.713065232498
    5   -832.385856146060    -15.751244960992   -433.713312178609
    6   -832.385739484907    -15.751361967833   -433.713312524297


 ITER         DEPRED              DEACT               RATIO

    1      0.000000000000      0.000000000000      0.000000000000
    2     -0.121375213028     -0.091030792342      0.749994913056
    3     -0.025565128444     -0.013656196920      0.534172826445
    4     -0.002758776242     -0.002855641116      1.035111537142
    5     -0.000243246494     -0.000246946111      1.015209333932
    6     -0.000000345378     -0.000000345688      1.000899133477


 ITER    BETA           GAMMA             STPLNG              RTRUST

    1      0.60000000  1.00000000      0.712779359278      0.700000000000
    2      1.40000000  1.00000000      0.658159955794      0.700000000000
    3      0.20000000  1.00000000      0.117442482924      0.469000000000
    4      0.20000000  1.00000000      0.049228556501      0.562800000000
    5      0.00000000  1.00000000      0.001759246928      0.700000000000
    6      0.00000000  0.00000000      0.000000000000      0.700000000000


 Reduced L root no.  1
 ITER         EVAL              EVEC(1)           EVEC(2)           EVEC(3)
 ----------------------------------------------------------------------------
    1   -1.026021702936   -0.000205753158    0.935727535471   -0.004421395326
    2   -0.684323759664    0.011093298777    0.781749882921   -0.594184721136
    3   -0.692100694165   -0.000329078979    0.159918735412    0.969024183882
    4   -0.693728403477   -0.000056091232    0.788740608831    0.581958274782
    5    0.000000000000    0.000000000000   -0.000129646730   -0.001214344779
    6    0.000000000000    0.000000000000    0.000000000000    0.000000000000


 Reduced L root no.  2
 ITER         EVAL              EVEC(1)           EVEC(2)           EVEC(3)
 ----------------------------------------------------------------------------
    1   -0.073877913360    0.919445643716    0.000145086510   -0.301765345797
    2   -0.054199084438    0.735409019626   -0.023698742216   -0.014657753121
    3   -0.000220580403    0.999724259355   -0.007130588608    0.001507838162
    4   -0.000019457833    0.999951534508   -0.001381311670    0.002089550545
    5    0.000000000000    0.000000000000    0.000000000000    0.000000000000
    6    0.000000000000    0.000000000000    0.000000000000    0.000000000000


                       .-----------------------------------.
                       | --- Final results from SIRIUS --- |
                       `-----------------------------------'


@    Spin multiplicity:           1
@    Spatial symmetry:            1 ( irrep  A1  in C2v )
@    Total charge of molecule:    0
@    State number:                2

@    Final MCSCF energy:         -433.713312524297                 
@    Nuclear repulsion:           414.423788928443
@    Electronic energy:          -848.137101452740

@    Final gradient norm:           0.000009641454

 
     Date and time (Linux)  : Sun Jan 19 00:24:02 2020
     Host name              : Lab2-333-NPs                            

 Occupancies of natural orbitals
 -------------------------------

 Symmetry 1  ( A1 ) -- Total occupation in this symmetry is  31.971612079

   2.000000000   2.000000000   2.000000000   2.000000000   2.000000000
   2.000000000   2.000000000   2.000000000   2.000000000   2.000000000
   2.000000000   2.000000000   2.000000000   2.000000000   2.000000000
   1.971612079

[...]
      ----------------------------------------------------------------
         1    2.84841D+04  7.21D+03  2.76D+04  4.71D+05    1.16800D-01

 ** RSPCTL MICROITERATION NUMBER    4

 *** INFO, negative eigenvalues in reduced matrix. Symmetry  1,  triplet       F Dimension of reduced matrix =    10

 GP * SOLUTION vector at frequency     0.11680 a.u.
 after    5 linear transformations is     -7.06048552D+05
 INERTIA (POS,ZER,NEG) of reduced matrix is    9    0    1
 Determinant of reduced matrix is -1.01 * 10 ** -6.0

       No.  Residual tot.,    conf., and orb.    Bnorm      Frequency 
      ----------------------------------------------------------------
         1    1.39769D+03  1.61D+02  1.39D+03  9.79D+03    1.16800D-01

 ** RSPCTL MICROITERATION NUMBER    5

 *** INFO, negative eigenvalues in reduced matrix. Symmetry  1,  triplet       F Dimension of reduced matrix =    12

 GP * SOLUTION vector at frequency     0.11680 a.u.
 after    6 linear transformations is      9.67203124D+05
 INERTIA (POS,ZER,NEG) of reduced matrix is   11    0    1
 Determinant of reduced matrix is -4.24 * 10 ** -7.0

       No.  Residual tot.,    conf., and orb.    Bnorm      Frequency 
      ----------------------------------------------------------------
         1    1.06539D+03  2.01D+02  1.05D+03  1.06D+04    1.16800D-01

 ** RSPCTL MICROITERATION NUMBER    6

 *** INFO, negative eigenvalues in reduced matrix. Symmetry  1,  triplet       F Dimension of reduced matrix =    14

 GP * SOLUTION vector at frequency     0.11680 a.u.
 after    7 linear transformations is      1.77145642D+06
 INERTIA (POS,ZER,NEG) of reduced matrix is   13    0    1
 Determinant of reduced matrix is -1.17 * 10 ** -7.0

       No.  Residual tot.,    conf., and orb.    Bnorm      Frequency 
      ----------------------------------------------------------------
         1    6.58602D+02  3.22D+02  5.75D+02  1.89D+04    1.16800D-01

 ** RSPCTL MICROITERATION NUMBER    7

 *** INFO, negative eigenvalues in reduced matrix. Symmetry  1,  triplet       F Dimension of reduced matrix =    16

 GP * SOLUTION vector at frequency     0.11680 a.u.
 after    8 linear transformations is      1.91530261D+06
 INERTIA (POS,ZER,NEG) of reduced matrix is   15    0    1
 Determinant of reduced matrix is -6.55 * 10 ** -8.0

       No.  Residual tot.,    conf., and orb.    Bnorm      Frequency 
      ----------------------------------------------------------------
         1    3.93276D+02  3.49D+02  1.82D+02  2.04D+04    1.16800D-01

 ** RSPCTL MICROITERATION NUMBER    8

 *** INFO, negative eigenvalues in reduced matrix. Symmetry  1,  triplet       F Dimension of reduced matrix =    18

 GP * SOLUTION vector at frequency     0.11680 a.u.
 after    9 linear transformations is      2.21258278D+06
 INERTIA (POS,ZER,NEG) of reduced matrix is   17    0    1
 Determinant of reduced matrix is -9.68 * 10 **-10.0

       No.  Residual tot.,    conf., and orb.    Bnorm      Frequency 
      ----------------------------------------------------------------
         1    7.24661D+02  6.03D+02  4.02D+02  2.37D+04    1.16800D-01

 ** RSPCTL MICROITERATION NUMBER    9

 *** INFO, negative eigenvalues in reduced matrix. Symmetry  1,  triplet       F Dimension of reduced matrix =    20

 GP * SOLUTION vector at frequency     0.11680 a.u.
 after   10 linear transformations is      1.92307402D+06
 INERTIA (POS,ZER,NEG) of reduced matrix is   18    0    2
 Determinant of reduced matrix is  8.25 * 10 **-12.0

       No.  Residual tot.,    conf., and orb.    Bnorm      Frequency 
      ----------------------------------------------------------------
         1    3.01786D+02  2.62D+01  3.01D+02  2.05D+04    1.16800D-01

 ** RSPCTL MICROITERATION NUMBER   10

 *** INFO, negative eigenvalues in reduced matrix. Symmetry  1,  triplet       F Dimension of reduced matrix =    22

 GP * SOLUTION vector at frequency     0.11680 a.u.
 after   11 linear transformations is      1.99096599D+06
 INERTIA (POS,ZER,NEG) of reduced matrix is   20    0    2
 Determinant of reduced matrix is  1.26 * 10 **-12.0

       No.  Residual tot.,    conf., and orb.    Bnorm      Frequency 
      ----------------------------------------------------------------
         1    6.06706D+02  5.58D+02  2.38D+02  2.13D+04    1.16800D-01

 ** RSPCTL MICROITERATION NUMBER   11

 *** INFO, negative eigenvalues in reduced matrix. Symmetry  1,  triplet       F Dimension of reduced matrix =    24

 GP * SOLUTION vector at frequency     0.11680 a.u.
 after   12 linear transformations is      1.97041515D+06
 INERTIA (POS,ZER,NEG) of reduced matrix is   21    0    3
 Determinant of reduced matrix is -3.61 * 10 **-12.0

       No.  Residual tot.,    conf., and orb.    Bnorm      Frequency 
      ----------------------------------------------------------------
         1    1.06424D+02  2.86D+01  1.02D+02  2.10D+04    1.16800D-01

 ** RSPCTL MICROITERATION NUMBER   12

 *** INFO, negative eigenvalues in reduced matrix. Symmetry  1,  triplet       F Dimension of reduced matrix =    26

 GP * SOLUTION vector at frequency     0.11680 a.u.
 after   13 linear transformations is      1.97864622D+06
 INERTIA (POS,ZER,NEG) of reduced matrix is   23    0    3
 Determinant of reduced matrix is -1.06 * 10 **-12.0

       No.  Residual tot.,    conf., and orb.    Bnorm      Frequency 
      ----------------------------------------------------------------
         1    5.50724D+01  2.70D+01  4.80D+01  2.11D+04    1.16800D-01

 ** RSPCTL MICROITERATION NUMBER   13

 *** INFO, negative eigenvalues in reduced matrix. Symmetry  1,  triplet       F Dimension of reduced matrix =    28

 GP * SOLUTION vector at frequency     0.11680 a.u.
 after   14 linear transformations is      1.98027818D+06
 INERTIA (POS,ZER,NEG) of reduced matrix is   25    0    3
 Determinant of reduced matrix is -3.44 * 10 **-13.0

       No.  Residual tot.,    conf., and orb.    Bnorm      Frequency 
      ----------------------------------------------------------------
         1    4.50877D+01  2.83D+01  3.51D+01  2.11D+04    1.16800D-01

 ** RSPCTL MICROITERATION NUMBER   14

 *** INFO, negative eigenvalues in reduced matrix. Symmetry  1,  triplet       F Dimension of reduced matrix =    30

 GP * SOLUTION vector at frequency     0.11680 a.u.
 after   15 linear transformations is      1.98094820D+06
 INERTIA (POS,ZER,NEG) of reduced matrix is   27    0    3
 Determinant of reduced matrix is -3.94 * 10 **-14.0

       No.  Residual tot.,    conf., and orb.    Bnorm      Frequency 
      ----------------------------------------------------------------
         1    3.54975D+01  2.91D+01  2.03D+01  2.11D+04    1.16800D-01

 ** RSPCTL MICROITERATION NUMBER   15

 *** INFO, negative eigenvalues in reduced matrix. Symmetry  1,  triplet       F Dimension of reduced matrix =    32

 GP * SOLUTION vector at frequency     0.11680 a.u.
 after   16 linear transformations is      1.98262585D+06
 INERTIA (POS,ZER,NEG) of reduced matrix is   29    0    3
 Determinant of reduced matrix is -5.02 * 10 **-15.0

       No.  Residual tot.,    conf., and orb.    Bnorm      Frequency 
      ----------------------------------------------------------------
         1    2.98162D+01  7.64D+00  2.88D+01  2.11D+04    1.16800D-01

 ** RSPCTL MICROITERATION NUMBER   16

 *** INFO, negative eigenvalues in reduced matrix. Symmetry  1,  triplet       F Dimension of reduced matrix =    34

 GP * SOLUTION vector at frequency     0.11680 a.u.
 after   17 linear transformations is      1.98413229D+06
 INERTIA (POS,ZER,NEG) of reduced matrix is   31    0    3
 Determinant of reduced matrix is -4.46 * 10 **-16.0

       No.  Residual tot.,    conf., and orb.    Bnorm      Frequency 
      ----------------------------------------------------------------
         1    2.69485D+01  1.09D+01  2.46D+01  2.11D+04    1.16800D-01

 ** RSPCTL MICROITERATION NUMBER   17

 *** INFO, negative eigenvalues in reduced matrix. Symmetry  1,  triplet       F Dimension of reduced matrix =    36

 GP * SOLUTION vector at frequency     0.11680 a.u.
 after   18 linear transformations is      1.98451899D+06
 INERTIA (POS,ZER,NEG) of reduced matrix is   33    0    3
 Determinant of reduced matrix is -2.91 * 10 **-16.0

       No.  Residual tot.,    conf., and orb.    Bnorm      Frequency 
      ----------------------------------------------------------------
         1    1.66499D+01  1.22D+01  1.14D+01  2.12D+04    1.16800D-01

 *** THE REQUESTED    1 SOLUTION VECTORS CONVERGED

 Convergence of RSP solution vectors, threshold = 1.00D-03
 ---------------------------------------------------------------
 (dimension of paired reduced space:   36)
 RSP solution vector no.    1; norm of residual   7.87D-04

 *** RSPCTL MICROITERATIONS CONVERGED
    YDIPLEN     YDIPLEN      freq1     freq2                Norm
 ---------------------------------------------------------------
                          0.058400  0.058400      21151.89283317
  Time used in CRVEC2     is       3 hours  4 minutes 43 seconds


 ----- CALCULATING CONTRIBUTIONS TO SECOND HYPERPOLARIZABILITY -----


   Contribution                Term         Accumulated
 ------------------------------------------------------
 Na T[4] Nb Nc Nd  4111152.75916090    4111152.75916090
 Na T[3] Nx Nyz    5282937.12606434    9394089.88522524
 Na X[3] Ny Nz     2492020.60096804   11886110.48619328
 Nx A[3] Ny Nz      830673.53365601   12716784.01984929
 Na X[2] Nyz     -11622329.43151216    1094454.58833713
 Nx A[2] Nyz     -11607859.09682724  -10513404.50849010

@ Cubic response function value in a.u. for
@ A operator, symmetry, frequency:   ZDIPLEN    1 -0.058400
@ B operator, symmetry, frequency:   ZDIPLEN    1  0.058400
@ C operator, symmetry, frequency:   ZDIPLEN    1 -0.058400
@ D operator, symmetry, frequency:   ZDIPLEN    1  0.058400

@ << A; B, C, D >>  =   -10513404.50849010



   Contribution                Term         Accumulated
 ------------------------------------------------------
 Na T[4] Nb Nc Nd 21939366.23481189   21939366.23481189
 Na T[3] Nx Nyz  -13549431.33433503    8389934.90047686
 Na X[3] Ny Nz    19351590.97754413   27741525.87802099
 Nx A[3] Ny Nz      894522.22182589   28636048.09984688
 Na X[2] Nyz     -60298460.44146122  -31662412.34161434
 Nx A[2] Nyz     -40194753.06667683  -71857165.40829116

@ Cubic response function value in a.u. for
@ A operator, symmetry, frequency:   XDIPLEN    2 -0.058400
@ B operator, symmetry, frequency:   XDIPLEN    2  0.058400
@ C operator, symmetry, frequency:   ZDIPLEN    1 -0.058400
@ D operator, symmetry, frequency:   ZDIPLEN    1  0.058400

@ << A; B, C, D >>  =   -71857165.40829116



   Contribution                Term         Accumulated
 ------------------------------------------------------
 Na T[4] Nb Nc Nd   192879.89051848     192879.89051848
 Na T[3] Nx Nyz    2175882.99237876    2368762.88289724
 Na X[3] Ny Nz      171692.95575828    2540455.83865552
 Nx A[3] Ny Nz        9932.39678726    2550388.23544278
 Na X[2] Nyz      -6385409.92038090   -3835021.68493812
 Nx A[2] Nyz     -13976416.49249197  -17811438.17743009

@ Cubic response function value in a.u. for
@ A operator, symmetry, frequency:   YDIPLEN    3 -0.058400
@ B operator, symmetry, frequency:   YDIPLEN    3  0.058400
@ C operator, symmetry, frequency:   ZDIPLEN    1 -0.058400
@ D operator, symmetry, frequency:   ZDIPLEN    1  0.058400

@ << A; B, C, D >>  =   -17811438.17743009



   Contribution                Term         Accumulated
 ------------------------------------------------------
 Na T[4] Nb Nc Nd  1290464.06752738    1290464.06752738
 Na T[3] Nx Nyz  -15757318.94057752  -14466854.87305014
 Na X[3] Ny Nz     3185760.79908135  -11281094.07396878
 Nx A[3] Ny Nz      168255.88349068  -11112838.19047811
 Na X[2] Nyz     -45367339.33152594  -56480177.52200405
 Nx A[2] Nyz     -35756983.42531598  -92237160.94732001

@ Cubic response function value in a.u. for
@ A operator, symmetry, frequency:   XDIPLEN    2 -0.058400
@ B operator, symmetry, frequency:   ZDIPLEN    1  0.058400
@ C operator, symmetry, frequency:   XDIPLEN    2 -0.058400
@ D operator, symmetry, frequency:   ZDIPLEN    1  0.058400

@ << A; B, C, D >>  =   -92237160.94732001



   Contribution                Term         Accumulated
 ------------------------------------------------------
 Na T[4] Nb Nc Nd   -48680.29754824     -48680.29754824
 Na T[3] Nx Nyz   -4135522.19552307   -4184202.49307130
 Na X[3] Ny Nz      -85332.20680870   -4269534.69988000
 Nx A[3] Ny Nz      -17424.77189135   -4286959.47177136
 Na X[2] Nyz      25207507.08259831   20920547.61082695
 Nx A[2] Nyz       9670813.94481407   30591361.55564101

@ Cubic response function value in a.u. for
@ A operator, symmetry, frequency:   YDIPLEN    3 -0.058400
@ B operator, symmetry, frequency:   ZDIPLEN    1  0.058400
@ C operator, symmetry, frequency:   YDIPLEN    3 -0.058400
@ D operator, symmetry, frequency:   ZDIPLEN    1  0.058400

@ << A; B, C, D >>  =    30591361.55564101



   Contribution                Term         Accumulated
 ------------------------------------------------------
 Na T[4] Nb Nc Nd   400748.20039829     400748.20039829
 Na T[3] Nx Nyz   69975555.55195488   70376303.75235318
 Na X[3] Ny Nz     2302742.72074597   72679046.47309916
 Nx A[3] Ny Nz     1661245.28978509   74340291.76288424
 Na X[2] Nyz     -78224155.95023619   -3883864.18735194
 Nx A[2] Nyz     -88694057.71496212  -92577921.90231407

@ Cubic response function value in a.u. for
@ A operator, symmetry, frequency:   ZDIPLEN    1 -0.058400
@ B operator, symmetry, frequency:   XDIPLEN    2  0.058400
@ C operator, symmetry, frequency:   ZDIPLEN    1 -0.058400
@ D operator, symmetry, frequency:   XDIPLEN    2  0.058400

@ << A; B, C, D >>  =   -92577921.90231407



   Contribution                Term         Accumulated
 ------------------------------------------------------
 Na T[4] Nb Nc Nd611701532.69921887  611701532.69921887
 Na T[3] Nx Nyz-1241024435.60314894 -629322902.90393019
 Na X[3] Ny Nz   136255994.55036098 -493066908.35356915
 Nx A[3] Ny Nz    45418664.85012031 -447648243.50344878
 Na X[2] Nyz    -221533333.93424124 -669181577.43769002
 Nx A[2] Nyz    -222091110.64562944 -891272688.08331943

@ Cubic response function value in a.u. for
@ A operator, symmetry, frequency:   XDIPLEN    2 -0.058400
@ B operator, symmetry, frequency:   XDIPLEN    2  0.058400
@ C operator, symmetry, frequency:   XDIPLEN    2 -0.058400
@ D operator, symmetry, frequency:   XDIPLEN    2  0.058400

@ << A; B, C, D >>  =  -891272688.08331943



   Contribution                Term         Accumulated
 ------------------------------------------------------
 Na T[4] Nb Nc Nd  1617559.63742888    1617559.63742888
 Na T[3] Nx Nyz   -6371939.93040414   -4754380.29297526
 Na X[3] Ny Nz      898309.10183649   -3856071.19113877
 Nx A[3] Ny Nz      432677.27351452   -3423393.91762425
 Na X[2] Nyz      -6650050.66679429  -10073444.58441854
 Nx A[2] Nyz      43489059.15988970   33415614.57547116

@ Cubic response function value in a.u. for
@ A operator, symmetry, frequency:   YDIPLEN    3 -0.058400
@ B operator, symmetry, frequency:   YDIPLEN    3  0.058400
@ C operator, symmetry, frequency:   XDIPLEN    2 -0.058400
@ D operator, symmetry, frequency:   XDIPLEN    2  0.058400

@ << A; B, C, D >>  =    33415614.57547116



   Contribution                Term         Accumulated
 ------------------------------------------------------
 Na T[4] Nb Nc Nd    38668.68376660      38668.68376660
 Na T[3] Nx Nyz    1335455.23560739    1374123.91937399
 Na X[3] Ny Nz       17717.59202068    1391841.51139467
 Nx A[3] Ny Nz      208619.96013876    1600461.47153342
 Na X[2] Nyz      25738098.95721079   27338560.42874422
 Nx A[2] Nyz      16425601.55789902   43764161.98664324

@ Cubic response function value in a.u. for
@ A operator, symmetry, frequency:   YDIPLEN    3 -0.058400
@ B operator, symmetry, frequency:   XDIPLEN    2  0.058400
@ C operator, symmetry, frequency:   YDIPLEN    3 -0.058400
@ D operator, symmetry, frequency:   XDIPLEN    2  0.058400

@ << A; B, C, D >>  =    43764161.98664324



   Contribution                Term         Accumulated
 ------------------------------------------------------
 Na T[4] Nb Nc Nd   -61124.87948644     -61124.87948644
 Na T[3] Nx Nyz   -7854348.33807546   -7915473.21756190
 Na X[3] Ny Nz      -60991.97906958   -7976465.19663148
 Nx A[3] Ny Nz      -31349.95673474   -8007815.15336622
 Na X[2] Nyz      11536224.09590003    3528408.94253381
 Nx A[2] Nyz      27065598.07780956   30594007.02034338

@ Cubic response function value in a.u. for
@ A operator, symmetry, frequency:   ZDIPLEN    1 -0.058400
@ B operator, symmetry, frequency:   YDIPLEN    3  0.058400
@ C operator, symmetry, frequency:   ZDIPLEN    1 -0.058400
@ D operator, symmetry, frequency:   YDIPLEN    3  0.058400

@ << A; B, C, D >>  =    30594007.02034338



   Contribution                Term         Accumulated
 ------------------------------------------------------
 Na T[4] Nb Nc Nd   -20736.17502383     -20736.17502383
 Na T[3] Nx Nyz    8878116.61661692    8857380.44159309
 Na X[3] Ny Nz      356381.91481751    9213762.35641060
 Nx A[3] Ny Nz      -83920.12452603    9129842.23188457
 Na X[2] Nyz      12731565.95838981   21861408.19027438
 Nx A[2] Nyz      21862885.45508329   43724293.64535768

@ Cubic response function value in a.u. for
@ A operator, symmetry, frequency:   XDIPLEN    2 -0.058400
@ B operator, symmetry, frequency:   YDIPLEN    3  0.058400
@ C operator, symmetry, frequency:   XDIPLEN    2 -0.058400
@ D operator, symmetry, frequency:   YDIPLEN    3  0.058400

@ << A; B, C, D >>  =    43724293.64535768



   Contribution                Term         Accumulated
 ------------------------------------------------------
 Na T[4] Nb Nc Nd    40196.53274354      40196.53274354
 Na T[3] Nx Nyz    -158485.53943854    -118289.00669500
 Na X[3] Ny Nz       18146.39365681    -100142.61303819
 Nx A[3] Ny Nz        6048.79788560     -94093.81515259
 Na X[2] Nyz       -972888.86401453   -1066982.67916712
 Nx A[2] Nyz       -972133.00940175   -2039115.68856887

@ Cubic response function value in a.u. for
@ A operator, symmetry, frequency:   YDIPLEN    3 -0.058400
@ B operator, symmetry, frequency:   YDIPLEN    3  0.058400
@ C operator, symmetry, frequency:   YDIPLEN    3 -0.058400
@ D operator, symmetry, frequency:   YDIPLEN    3  0.058400

@ << A; B, C, D >>  =    -2039115.68856887



  Summary of gamma values for a set of frequencies
 -------------------------------------------------

@ B-freq:  0.058400
@ C-freq: -0.058400
@ D-freq:  0.058400

@ gamma(X;X,X,X)  891272688.0833
@ gamma(X;X,Y,Y)  -33415614.5755
@ gamma(X;Y,Y,X)  -33415614.5755
@ gamma(X;Y,X,Y)  -43724293.6454
@ gamma(X;X,Z,Z)   71857165.4083
@ gamma(X;Z,Z,X)   71857165.4083
@ gamma(X;Z,X,Z)   92237160.9473
@ gamma(Y;Y,X,X)  -33415614.5755
@ gamma(Y;X,X,Y)  -33415614.5755
@ gamma(Y;X,Y,X)  -43764161.9866
@ gamma(Y;Y,Y,Y)    2039115.6886
@ gamma(Y;Y,Z,Z)   17811438.1774
@ gamma(Y;Z,Z,Y)   17811438.1774
@ gamma(Y;Z,Y,Z)  -30591361.5556
@ gamma(Z;Z,X,X)   71857165.4083
@ gamma(Z;X,X,Z)   71857165.4083
@ gamma(Z;X,Z,X)   92577921.9023
@ gamma(Z;Z,Y,Y)   17811438.1774
@ gamma(Z;Y,Y,Z)   17811438.1774
@ gamma(Z;Y,Z,Y)  -30594007.0203
@ gamma(Z;Z,Z,Z)   10513404.5085

@ Averaged gamma parallel to the applied field is 198175255.968252

  Total CPU  time used in RESPONSE:   7 hours 46 minutes 46 seconds
  Total wall time used in RESPONSE:   7 hours 46 minutes 49 seconds


                   .-------------------------------------------.
                   | End of Dynamic Property Section (RESPONS) |
                   `-------------------------------------------'

  Total CPU  time used in DALTON:   8 hours 38 minutes 10 seconds
  Total wall time used in DALTON:   8 hours 38 minutes 15 seconds

 
     Date and time (Linux)  : Sun Jan 19 08:10:51 2020
     Host name              : Lab2-333-NPs                            
