

     ************************************************************************
     *************** Dalton - An Electronic Structure Program ***************
     ************************************************************************

    This is output from DALTON release Dalton2018.1 (2019)
         ( Web site: http://daltonprogram.org )

   ----------------------------------------------------------------------------

    NOTE:
     
    Dalton is an experimental code for the evaluation of molecular
    properties using (MC)SCF, DFT, CI, and CC wave functions.
    The authors accept no responsibility for the performance of
    the code or for the correctness of the results.
     
    The code (in whole or part) is provided under a licence and
    is not to be reproduced for further distribution without
    the written permission of the authors or their representatives.
     
    See the home page "http://daltonprogram.org" for further information.
     
    If results obtained with this code are published,
    the appropriate citations would be both of:
     
       K. Aidas, C. Angeli, K. L. Bak, V. Bakken, R. Bast,
       L. Boman, O. Christiansen, R. Cimiraglia, S. Coriani,
       P. Dahle, E. K. Dalskov, U. Ekstroem,
       T. Enevoldsen, J. J. Eriksen, P. Ettenhuber, B. Fernandez,
       L. Ferrighi, H. Fliegl, L. Frediani, K. Hald, A. Halkier,
       C. Haettig, H. Heiberg, T. Helgaker, A. C. Hennum,
       H. Hettema, E. Hjertenaes, S. Hoest, I.-M. Hoeyvik,
       M. F. Iozzi, B. Jansik, H. J. Aa. Jensen, D. Jonsson,
       P. Joergensen, J. Kauczor, S. Kirpekar,
       T. Kjaergaard, W. Klopper, S. Knecht, R. Kobayashi, H. Koch,
       J. Kongsted, A. Krapp, K. Kristensen, A. Ligabue,
       O. B. Lutnaes, J. I. Melo, K. V. Mikkelsen, R. H. Myhre,
       C. Neiss, C. B. Nielsen, P. Norman, J. Olsen,
       J. M. H. Olsen, A. Osted, M. J. Packer, F. Pawlowski,
       T. B. Pedersen, P. F. Provasi, S. Reine, Z. Rinkevicius,
       T. A. Ruden, K. Ruud, V. Rybkin, P. Salek, C. C. M. Samson,
       A. Sanchez de Meras, T. Saue, S. P. A. Sauer,
       B. Schimmelpfennig, K. Sneskov, A. H. Steindal,
       K. O. Sylvester-Hvid, P. R. Taylor, A. M. Teale,
       E. I. Tellgren, D. P. Tew, A. J. Thorvaldsen, L. Thoegersen,
       O. Vahtras, M. A. Watson, D. J. D. Wilson, M. Ziolkowski
       and H. Agren,
       "The Dalton quantum chemistry program system",
       WIREs Comput. Mol. Sci. 2014, 4:269–284 (doi: 10.1002/wcms.1172)
     
    and
     
       Dalton, a molecular electronic structure program,
       Release Dalton2018.1 (2019), see http://daltonprogram.org
   ----------------------------------------------------------------------------

    Authors in alphabetical order (major contribution(s) in parenthesis):

  Kestutis Aidas,           Vilnius University,           Lithuania   (QM/MM)
  Celestino Angeli,         University of Ferrara,        Italy       (NEVPT2)
  Keld L. Bak,              UNI-C,                        Denmark     (AOSOPPA, non-adiabatic coupling, magnetic properties)
  Vebjoern Bakken,          University of Oslo,           Norway      (DALTON; geometry optimizer, symmetry detection)
  Radovan Bast,             UiT The Arctic U. of Norway,  Norway      (DALTON installation and execution frameworks)
  Pablo Baudin,             University of Valencia,       Spain       (Cholesky excitation energies)
  Linus Boman,              NTNU,                         Norway      (Cholesky decomposition and subsystems)
  Ove Christiansen,         Aarhus University,            Denmark     (CC module)
  Renzo Cimiraglia,         University of Ferrara,        Italy       (NEVPT2)
  Sonia Coriani,            Technical Univ. of Denmark,   Denmark     (CC module, MCD in RESPONS)
  Janusz Cukras,            University of Trieste,        Italy       (MChD in RESPONS)
  Paal Dahle,               University of Oslo,           Norway      (Parallelization)
  Erik K. Dalskov,          UNI-C,                        Denmark     (SOPPA)
  Thomas Enevoldsen,        Univ. of Southern Denmark,    Denmark     (SOPPA)
  Janus J. Eriksen,         Aarhus University,            Denmark     (Polarizable embedding model, TDA)
  Rasmus Faber,             University of Copenhagen,     Denmark     (Vib.avg. NMR with SOPPA, parallel AO-SOPPA)
  Tobias Fahleson,          KTH Stockholm,                Sweden      (Damped cubic response)
  Berta Fernandez,          U. of Santiago de Compostela, Spain       (doublet spin, ESR in RESPONS)
  Lara Ferrighi,            Aarhus University,            Denmark     (PCM Cubic response)
  Heike Fliegl,             University of Oslo,           Norway      (CCSD(R12))
  Luca Frediani,            UiT The Arctic U. of Norway,  Norway      (PCM)
  Bin Gao,                  UiT The Arctic U. of Norway,  Norway      (Gen1Int library)
  Christof Haettig,         Ruhr-University Bochum,       Germany     (CC module)
  Kasper Hald,              Aarhus University,            Denmark     (CC module)
  Asger Halkier,            Aarhus University,            Denmark     (CC module)
  Frederik Beyer Hansen,    University of Copenhagen,     Denmark     (Parallel AO-SOPPA)
  Erik D. Hedegaard,        Univ. of Southern Denmark,    Denmark     (Polarizable embedding model, QM/MM)
  Hanne Heiberg,            University of Oslo,           Norway      (geometry analysis, selected one-electron integrals)
  Trygve Helgaker,          University of Oslo,           Norway      (DALTON; ABACUS, ERI, DFT modules, London, and much more)
  Alf Christian Hennum,     University of Oslo,           Norway      (Parity violation)
  Hinne Hettema,            University of Auckland,       New Zealand (quadratic response in RESPONS; SIRIUS supersymmetry)
  Eirik Hjertenaes,         NTNU,                         Norway      (Cholesky decomposition)
  Pi A. B. Haase,           University of Copenhagen,     Denmark     (Triplet AO-SOPPA)
  Maria Francesca Iozzi,    University of Oslo,           Norway      (RPA)
  Christoph Jacob           TU Braunschweig               Germany     (Frozen density embedding model)
  Brano Jansik              Technical Univ. of Ostrava    Czech Rep.  (DFT cubic response)
  Hans Joergen Aa. Jensen,  Univ. of Southern Denmark,    Denmark     (DALTON; SIRIUS, RESPONS, ABACUS modules, London, and much more)
  Dan Jonsson,              UiT The Arctic U. of Norway,  Norway      (cubic response in RESPONS module)
  Poul Joergensen,          Aarhus University,            Denmark     (RESPONS, ABACUS, and CC modules)
  Maciej Kaminski,          University of Warsaw,         Poland      (CPPh in RESPONS)
  Joanna Kauczor,           Linkoeping University,        Sweden      (Complex polarization propagator (CPP) module)
  Sheela Kirpekar,          Univ. of Southern Denmark,    Denmark     (Mass-velocity & Darwin integrals)
  Wim Klopper,              KIT Karlsruhe,                Germany     (R12 code in CC, SIRIUS, and ABACUS modules)
  Stefan Knecht,            ETH Zurich,                   Switzerland (Parallel CI and MCSCF)
  Rika Kobayashi,           Australian National Univ.,    Australia   (DIIS in CC, London in MCSCF)
  Henrik Koch,              NTNU,                         Norway      (CC module, Cholesky decomposition)
  Jacob Kongsted,           Univ. of Southern Denmark,    Denmark     (Polarizable embedding model, QM/MM)
  Andrea Ligabue,           University of Modena,         Italy       (CTOCD, AOSOPPA)
  Nanna H. List             Univ. of Southern Denmark,    Denmark     (Polarizable embedding model)
  Ola B. Lutnaes,           University of Oslo,           Norway      (DFT Hessian)
  Juan I. Melo,             University of Buenos Aires,   Argentina   (LRESC, Relativistic Effects on NMR Shieldings)
  Kurt V. Mikkelsen,        University of Copenhagen,     Denmark     (MC-SCRF and QM/MM)
  Rolf H. Myhre,            NTNU,                         Norway      (Subsystems and CC3)
  Christian Neiss,          Univ. Erlangen-Nuernberg,     Germany     (CCSD(R12))
  Christian B. Nielsen,     University of Copenhagen,     Denmark     (QM/MM)
  Patrick Norman,           KTH Stockholm,                Sweden      (Cubic response and complex frequency response in RESPONS)
  Jeppe Olsen,              Aarhus University,            Denmark     (SIRIUS CI/density modules)
  Jogvan Magnus H. Olsen,   Univ. of Southern Denmark,    Denmark     (Polarizable embedding model, QM/MM)
  Anders Osted,             Copenhagen University,        Denmark     (QM/MM)
  Martin J. Packer,         University of Sheffield,      UK          (SOPPA)
  Filip Pawlowski,          Kazimierz Wielki University,  Poland      (CC3)
  Morten N. Pedersen,       Univ. of Southern Denmark,    Denmark     (Polarizable embedding model)
  Thomas B. Pedersen,       University of Oslo,           Norway      (Cholesky decomposition)
  Patricio F. Provasi,      University of Northeastern,   Argentina   (Analysis of coupling constants in localized orbitals)
  Zilvinas Rinkevicius,     KTH Stockholm,                Sweden      (open-shell DFT, ESR)
  Elias Rudberg,            KTH Stockholm,                Sweden      (DFT grid and basis info)
  Torgeir A. Ruden,         University of Oslo,           Norway      (Numerical derivatives in ABACUS)
  Kenneth Ruud,             UiT The Arctic U. of Norway,  Norway      (DALTON; ABACUS magnetic properties and much more)
  Pawel Salek,              KTH Stockholm,                Sweden      (DALTON; DFT code)
  Claire C. M. Samson       University of Karlsruhe       Germany     (Boys localization, r12 integrals in ERI)
  Alfredo Sanchez de Meras, University of Valencia,       Spain       (CC module, Cholesky decomposition)
  Trond Saue,               Paul Sabatier University,     France      (direct Fock matrix construction)
  Stephan P. A. Sauer,      University of Copenhagen,     Denmark     (SOPPA(CCSD), SOPPA prop., AOSOPPA, vibrational g-factors)
  Andre S. P. Gomes,        CNRS/Universite de Lille,     France      (Frozen density embedding model)
  Bernd Schimmelpfennig,    Forschungszentrum Karlsruhe,  Germany     (AMFI module)
  Kristian Sneskov,         Aarhus University,            Denmark     (Polarizable embedding model, QM/MM)
  Arnfinn H. Steindal,      UiT The Arctic U. of Norway,  Norway      (parallel QM/MM, Polarizable embedding model)
  Casper Steinmann,         Univ. of Southern Denmark,    Denmark     (QFIT, Polarizable embedding model)
  K. O. Sylvester-Hvid,     University of Copenhagen,     Denmark     (MC-SCRF)
  Peter R. Taylor,          VLSCI/Univ. of Melbourne,     Australia   (Symmetry handling ABACUS, integral transformation)
  Andrew M. Teale,          University of Nottingham,     England     (DFT-AC, DFT-D)
  David P. Tew,             University of Bristol,        England     (CCSD(R12))
  Olav Vahtras,             KTH Stockholm,                Sweden      (triplet response, spin-orbit, ESR, TDDFT, open-shell DFT)
  Lucas Visscher,           Vrije Universiteit Amsterdam, Netherlands (Frozen density embedding model)
  David J. Wilson,          La Trobe University,          Australia   (DFT Hessian and DFT magnetizabilities)
  Hans Agren,               KTH Stockholm,                Sweden      (SIRIUS module, RESPONS, MC-SCRF solvation model)
 --------------------------------------------------------------------------------

     Date and time (Linux)  : Tue Jan 21 09:00:22 2020
     Host name              : Lab2-333-NPs                            

 * Work memory size             :  1024000000 =  7.629 gigabytes.

 * Directories for basis set searches:
   1) /home/lab333/dalton/build_2018_atlas
   2) /home/lab333/dalton/build_2018_atlas/basis


Compilation information
-----------------------

 Who compiled             | lab333
 Host                     | Lab2-333-NPs
 System                   | Linux-4.4.0-43-Microsoft
 CMake generator          | Unix Makefiles
 Processor                | x86_64
 64-bit integers          | OFF
 MPI                      | OFF
 Fortran compiler         | /usr/bin/gfortran
 Fortran compiler version | GNU Fortran (Ubuntu 7.3.0-27ubuntu1~18.04) 7.3.0
 C compiler               | /usr/bin/gcc
 C compiler version       | gcc (Ubuntu 7.3.0-27ubuntu1~18.04) 7.3.0
 C++ compiler             | /usr/bin/g++
 C++ compiler version     | g++ (Ubuntu 7.3.0-27ubuntu1~18.04) 7.3.0
 BLAS                     | /usr/lib/x86_64-linux-gnu/libf77blas.so;/usr/lib/x
                          | 86_64-linux-gnu/libcblas.so;/usr/lib/x86_64-linux-
                          | gnu/libatlas.so
 LAPACK                   | /usr/lib/x86_64-linux-gnu/libatlas.so;/usr/lib/x86
                          | _64-linux-gnu/atlas/liblapack.so
 Static linking           | OFF
 Last Git revision        | da625bf48c74028e805616daee31bc5d76b3a20d
 Git branch               | (HEAD detached at Dalton2018.1)
 Configuration time       | 2019-01-18 10:20:51.437510


   Content of the .dal input file
 ----------------------------------

**DALTON INPUT
.RUN RESPONSE
.DIRECT
**WAVE FUNCTIONS
.HF
.MP2
.MCSCF
*CONFIGURATION INPUT
.SPIN MULTIPLICITY
3
.SYMMETRY
1
.INACTIVE ORBITALS
15 10 2 0
.CAS SPACE
1 1 2 3
.ELECTRONS
10
*ORBITAL INPUT
.MOSTART
.HUCKEL
*OPTIMIZATION
.DETERMINANTS
.STATE
2
*CI VECTOR
.PLUS COMBINATIONS
**RESPONSE
*CUBIC
.DIPLEN
.BFREQ
1
0.0584
.CFREQ
1
-0.0584
.DFREQ
1
0.0584
**END OF DALTON INPUT


   Content of the .mol file
 ----------------------------

BASIS
aug-cc-pCVDZ
 nitrobenzene
 Generated by the Dalton Input File Plugin for Avogadro
Atomtypes=4 Angstrom Generators=2 X Y
Charge=6.0 Atoms=4
C        0.0000000000            0.0000000000           -0.0265759623
C       -1.2190534920            0.0000000000           -0.6979856948
C       -1.2105095870            0.0000000000           -2.0897394457
C        0.0000000000            0.0000000000           -2.7841484631
Charge=7.0 Atoms=1
N        0.0000000000            0.0000000000            1.4549291696
Charge=8.0 Atoms=1
O       0.5786456795408639            0.0            2.5343799658082187
Charge=1.0 Atoms=3
H       -2.1410602955            0.0000000000           -0.1327964319
H       -2.1492827751            0.0000000000           -2.6311811056
H        0.0000000000            0.0000000000           -3.8683953478


       *******************************************************************
       *********** Output from DALTON general input processing ***********
       *******************************************************************

 --------------------------------------------------------------------------------
   Overall default print level:    0
   Print level for DALTON.STAT:    1

    AO-direct calculation (in sections where implemented)
    HERMIT 1- and 2-electron integral sections will be executed
    "Old" integral transformation used (limited to max 255 basis functions)
    Wave function sections will be executed (SIRIUS module)
    Dynamic molecular response properties section will be executed (RESPONSE module)
 --------------------------------------------------------------------------------


   ****************************************************************************
   *************** Output of molecule and basis set information ***************
   ****************************************************************************


    The two title cards from your ".mol" input:
    ------------------------------------------------------------------------
 1:  nitrobenzene                                                           
 2:  Generated by the Dalton Input File Plugin for Avogadro                 
    ------------------------------------------------------------------------

  Coordinates are entered in Angstrom and converted to atomic units.
          - Conversion factor : 1 bohr = 0.52917721 A

  Atomic type no.    1
  --------------------
  Nuclear charge:   6.00000
  Number of symmetry independent centers:    4
  Number of basis sets to read;    2
  Basis set file used for this atomic type with Z =   6 :
     "/home/lab333/dalton/build_2018_atlas/basis/aug-cc-pCVDZ"

  Atomic type no.    2
  --------------------
  Nuclear charge:   7.00000
  Number of symmetry independent centers:    1
  Number of basis sets to read;    2
  Basis set file used for this atomic type with Z =   7 :
     "/home/lab333/dalton/build_2018_atlas/basis/aug-cc-pCVDZ"

  Atomic type no.    3
  --------------------
  Nuclear charge:   8.00000
  Number of symmetry independent centers:    1
  Number of basis sets to read;    2
  Basis set file used for this atomic type with Z =   8 :
     "/home/lab333/dalton/build_2018_atlas/basis/aug-cc-pCVDZ"

  Atomic type no.    4
  --------------------
  Nuclear charge:   1.00000
  Number of symmetry independent centers:    3
  Number of basis sets to read;    2
  Basis set file used for this atomic type with Z =   1 :
     "/home/lab333/dalton/build_2018_atlas/basis/aug-cc-pCVDZ"


                         SYMGRP: Point group information
                         -------------------------------

@    Point group: C2v

@  * The irrep name for each symmetry:    1: A1     2: B1     3: B2     4: A2 

   * The point group was generated by:

      Reflection in the yz-plane
      Reflection in the xz-plane

   * Group multiplication table

        |  E   C2z  Oxz  Oyz
   -----+--------------------
     E  |  E   C2z  Oxz  Oyz
    C2z | C2z   E   Oyz  Oxz
    Oxz | Oxz  Oyz   E   C2z
    Oyz | Oyz  Oxz  C2z   E 

   * Character table

        |  E   C2z  Oxz  Oyz
   -----+--------------------
    A1  |   1    1    1    1
    B1  |   1   -1    1   -1
    B2  |   1   -1   -1    1
    A2  |   1    1   -1   -1

   * Direct product table

        | A1   B1   B2   A2 
   -----+--------------------
    A1  | A1   B1   B2   A2 
    B1  | B1   A1   A2   B2 
    B2  | B2   A2   A1   B1 
    A2  | A2   B2   B1   A1 


                                 Isotopic Masses
                                 ---------------

                           C          12.000000
                           C   _1     12.000000
                           C   _2     12.000000
                           C   _1     12.000000
                           C   _2     12.000000
                           C          12.000000
                           N          14.003074
                           O   _1     15.994915
                           O   _2     15.994915
                           H   _1      1.007825
                           H   _2      1.007825
                           H   _1      1.007825
                           H   _2      1.007825
                           H           1.007825

                       Total mass:   123.032029 amu
                       Natural abundance:  92.716 %

 Center-of-mass coordinates (a.u.):    0.000000    0.000000   -0.132955


  Atoms and basis sets
  --------------------

  Number of atom types :    4
  Total number of atoms:   14

  Basis set used is "aug-cc-pCVDZ" from the basis set library.

  label    atoms   charge   prim   cont     basis
  ----------------------------------------------------------------------
  C           6    6.0000    39    27      [11s6p2d|5s4p2d]                                   
  N           1    7.0000    39    27      [11s6p2d|5s4p2d]                                   
  O           2    8.0000    39    27      [11s6p2d|5s4p2d]                                   
  H           5    1.0000    11     9      [5s2p|3s2p]                                        
  ----------------------------------------------------------------------
  total:     14   64.0000   406   288
  ----------------------------------------------------------------------
  Spherical harmonic basis used.

  Threshold for neglecting AO integrals:  1.00D-12


  Symmetry Coordinates
  --------------------

  Number of coordinates in each symmetry:    14   14    9    5


   Interatomic separations (in Angstrom):
   --------------------------------------

            C           C   _1      C   _2      C   _1      C   _2      C     
            ------      ------      ------      ------      ------      ------
 C     :    0.000000
 C   _1:    1.391719    0.000000
 C   _2:    1.391719    2.438107    0.000000
 C   _1:    2.392065    1.391780    2.799956    0.000000
 C   _2:    2.392065    2.799956    1.391780    2.421019    0.000000
 C     :    2.757573    2.416230    2.416230    1.395542    1.395542    0.000000
 N     :    1.481505    2.474093    2.474093    3.745665    3.745665    4.239078
 O   _1:    2.625514    3.698636    3.295195    4.958181    4.667090    5.349914
 O   _2:    2.625514    3.295195    3.698636    4.667090    4.958181    5.349914
 H   _1:    2.143694    1.081451    3.407316    2.166922    3.881063    3.407904
 H   _2:    2.143694    3.407316    1.081451    3.881063    2.166922    3.407904
 H   _1:    3.376890    2.145360    3.883675    1.083722    3.403140    2.154719
 H   _2:    3.376890    3.883675    2.145360    3.403140    1.083722    2.154719
 H     :    3.841819    3.396703    3.396703    2.151500    2.151500    1.084247

            N           O   _1      O   _2      H   _1      H   _2      H   _1
            ------      ------      ------      ------      ------      ------
 N     :    0.000000
 O   _1:    1.224763    0.000000
 O   _2:    1.224763    1.157291    0.000000
 H   _1:    2.665523    3.809282    3.091111    0.000000
 H   _2:    2.665523    3.091111    3.809282    4.282121    0.000000
 H   _1:    4.616894    5.841628    5.399067    2.498398    4.964773    0.000000
 H   _2:    4.616894    5.399067    5.841628    4.964773    2.498398    4.298566
 H     :    5.323325    6.428869    6.428869    4.305675    4.305675    2.479943

            H   _2      H     
            ------      ------
 H   _2:    0.000000
 H     :    2.479943    0.000000


  Max    interatomic separation is    6.4289 Angstrom (   12.1488 Bohr)
  between atoms   14 and    8, "H     " and "O   _1".

  Min HX interatomic separation is    1.0815 Angstrom (    2.0436 Bohr)

  Min YX interatomic separation is    1.1573 Angstrom (    2.1870 Bohr)


  Bond distances (Angstrom):
  --------------------------

                  atom 1     atom 2       distance
                  ------     ------       --------
  bond distance:  C   _1     C            1.391719
  bond distance:  C   _2     C            1.391719
  bond distance:  C   _1     C   _1       1.391780
  bond distance:  C   _2     C   _2       1.391780
  bond distance:  C          C   _1       1.395542
  bond distance:  C          C   _2       1.395542
  bond distance:  N          C            1.481505
  bond distance:  O   _1     N            1.224763
  bond distance:  O   _2     N            1.224763
  bond distance:  O   _2     O   _1       1.157291
  bond distance:  H   _1     C   _1       1.081451
  bond distance:  H   _2     C   _2       1.081451
  bond distance:  H   _1     C   _1       1.083722
  bond distance:  H   _2     C   _2       1.083722
  bond distance:  H          C            1.084247


  Bond angles (degrees):
  ----------------------

                  atom 1     atom 2     atom 3         angle
                  ------     ------     ------         -----
  bond angle:     C   _1     C          C   _2       122.311
  bond angle:     C   _1     C          N            118.844
  bond angle:     C   _2     C          N            118.844
  bond angle:     C          C   _1     C   _1       118.493
  bond angle:     C          C   _1     H   _1       119.647
  bond angle:     C   _1     C   _1     H   _1       121.860
  bond angle:     C          C   _2     C   _2       118.493
  bond angle:     C          C   _2     H   _2       119.647
  bond angle:     C   _2     C   _2     H   _2       121.860
  bond angle:     C   _1     C   _1     C            120.192
  bond angle:     C   _1     C   _1     H   _1       119.623
  bond angle:     C          C   _1     H   _1       120.185
  bond angle:     C   _2     C   _2     C            120.192
  bond angle:     C   _2     C   _2     H   _2       119.623
  bond angle:     C          C   _2     H   _2       120.185
  bond angle:     C   _1     C          C   _2       120.319
  bond angle:     C   _1     C          H            119.841
  bond angle:     C   _2     C          H            119.841
  bond angle:     C          N          O   _1       151.806
  bond angle:     C          N          O   _2       151.806
  bond angle:     O   _1     N          O   _2        56.388
  bond angle:     N          O   _1     O   _2        61.806
  bond angle:     N          O   _2     O   _1        61.806




 Principal moments of inertia (u*A**2) and principal axes
 --------------------------------------------------------

   IA     100.096525          0.000000    0.000000    1.000000
   IB     473.104900          1.000000    0.000000    0.000000
   IC     573.201425          0.000000    1.000000    0.000000


 Rotational constants
 --------------------

@    The molecule is planar.

               A                   B                   C

           5048.9166           1068.2177            881.6779 MHz
            0.168414            0.035632            0.029410 cm-1


@  Nuclear repulsion energy :  415.594620694407 Hartree


  Symmetry Orbitals
  -----------------

  Number of orbitals in each symmetry:         115   91   48   34


  Symmetry  A1 ( 1)

    1     C        1s         1
    2     C        1s         2
    3     C        1s         3
    4     C        1s         4
    5     C        1s         5
    6     C        2pz        8
    7     C        2pz       11
    8     C        2pz       14
    9     C        2pz       17
   10     C        3d0       20
   11     C        3d2+      22
   12     C        3d0       25
   13     C        3d2+      27
   14     C        1s        28 +   29
   15     C        1s        30 +   31
   16     C        1s        32 +   33
   17     C        1s        34 +   35
   18     C        1s        36 +   37
   19     C        2px       38 -   39
   20     C        2pz       42 +   43
   21     C        2px       44 -   45
   22     C        2pz       48 +   49
   23     C        2px       50 -   51
   24     C        2pz       54 +   55
   25     C        2px       56 -   57
   26     C        2pz       60 +   61
   27     C        3d0       66 +   67
   28     C        3d1+      68 -   69
   29     C        3d2+      70 +   71
   30     C        3d0       76 +   77
   31     C        3d1+      78 -   79
   32     C        3d2+      80 +   81
   33     C        1s        82 +   83
   34     C        1s        84 +   85
   35     C        1s        86 +   87
   36     C        1s        88 +   89
   37     C        1s        90 +   91
   38     C        2px       92 -   93
   39     C        2pz       96 +   97
   40     C        2px       98 -   99
   41     C        2pz      102 +  103
   42     C        2px      104 -  105
   43     C        2pz      108 +  109
   44     C        2px      110 -  111
   45     C        2pz      114 +  115
   46     C        3d0      120 +  121
   47     C        3d1+     122 -  123
   48     C        3d2+     124 +  125
   49     C        3d0      130 +  131
   50     C        3d1+     132 -  133
   51     C        3d2+     134 +  135
   52     C        1s       136
   53     C        1s       137
   54     C        1s       138
   55     C        1s       139
   56     C        1s       140
   57     C        2pz      143
   58     C        2pz      146
   59     C        2pz      149
   60     C        2pz      152
   61     C        3d0      155
   62     C        3d2+     157
   63     C        3d0      160
   64     C        3d2+     162
   65     N        1s       163
   66     N        1s       164
   67     N        1s       165
   68     N        1s       166
   69     N        1s       167
   70     N        2pz      170
   71     N        2pz      173
   72     N        2pz      176
   73     N        2pz      179
   74     N        3d0      182
   75     N        3d2+     184
   76     N        3d0      187
   77     N        3d2+     189
   78     O        1s       190 +  191
   79     O        1s       192 +  193
   80     O        1s       194 +  195
   81     O        1s       196 +  197
   82     O        1s       198 +  199
   83     O        2px      200 -  201
   84     O        2pz      204 +  205
   85     O        2px      206 -  207
   86     O        2pz      210 +  211
   87     O        2px      212 -  213
   88     O        2pz      216 +  217
   89     O        2px      218 -  219
   90     O        2pz      222 +  223
   91     O        3d0      228 +  229
   92     O        3d1+     230 -  231
   93     O        3d2+     232 +  233
   94     O        3d0      238 +  239
   95     O        3d1+     240 -  241
   96     O        3d2+     242 +  243
   97     H        1s       244 +  245
   98     H        1s       246 +  247
   99     H        1s       248 +  249
  100     H        2px      250 -  251
  101     H        2pz      254 +  255
  102     H        2px      256 -  257
  103     H        2pz      260 +  261
  104     H        1s       262 +  263
  105     H        1s       264 +  265
  106     H        1s       266 +  267
  107     H        2px      268 -  269
  108     H        2pz      272 +  273
  109     H        2px      274 -  275
  110     H        2pz      278 +  279
  111     H        1s       280
  112     H        1s       281
  113     H        1s       282
  114     H        2pz      285
  115     H        2pz      288


  Symmetry  B1 ( 2)

  116     C        2px        6
  117     C        2px        9
  118     C        2px       12
  119     C        2px       15
  120     C        3d1+      21
  121     C        3d1+      26
  122     C        1s        28 -   29
  123     C        1s        30 -   31
  124     C        1s        32 -   33
  125     C        1s        34 -   35
  126     C        1s        36 -   37
  127     C        2px       38 +   39
  128     C        2pz       42 -   43
  129     C        2px       44 +   45
  130     C        2pz       48 -   49
  131     C        2px       50 +   51
  132     C        2pz       54 -   55
  133     C        2px       56 +   57
  134     C        2pz       60 -   61
  135     C        3d0       66 -   67
  136     C        3d1+      68 +   69
  137     C        3d2+      70 -   71
  138     C        3d0       76 -   77
  139     C        3d1+      78 +   79
  140     C        3d2+      80 -   81
  141     C        1s        82 -   83
  142     C        1s        84 -   85
  143     C        1s        86 -   87
  144     C        1s        88 -   89
  145     C        1s        90 -   91
  146     C        2px       92 +   93
  147     C        2pz       96 -   97
  148     C        2px       98 +   99
  149     C        2pz      102 -  103
  150     C        2px      104 +  105
  151     C        2pz      108 -  109
  152     C        2px      110 +  111
  153     C        2pz      114 -  115
  154     C        3d0      120 -  121
  155     C        3d1+     122 +  123
  156     C        3d2+     124 -  125
  157     C        3d0      130 -  131
  158     C        3d1+     132 +  133
  159     C        3d2+     134 -  135
  160     C        2px      141
  161     C        2px      144
  162     C        2px      147
  163     C        2px      150
  164     C        3d1+     156
  165     C        3d1+     161
  166     N        2px      168
  167     N        2px      171
  168     N        2px      174
  169     N        2px      177
  170     N        3d1+     183
  171     N        3d1+     188
  172     O        1s       190 -  191
  173     O        1s       192 -  193
  174     O        1s       194 -  195
  175     O        1s       196 -  197
  176     O        1s       198 -  199
  177     O        2px      200 +  201
  178     O        2pz      204 -  205
  179     O        2px      206 +  207
  180     O        2pz      210 -  211
  181     O        2px      212 +  213
  182     O        2pz      216 -  217
  183     O        2px      218 +  219
  184     O        2pz      222 -  223
  185     O        3d0      228 -  229
  186     O        3d1+     230 +  231
  187     O        3d2+     232 -  233
  188     O        3d0      238 -  239
  189     O        3d1+     240 +  241
  190     O        3d2+     242 -  243
  191     H        1s       244 -  245
  192     H        1s       246 -  247
  193     H        1s       248 -  249
  194     H        2px      250 +  251
  195     H        2pz      254 -  255
  196     H        2px      256 +  257
  197     H        2pz      260 -  261
  198     H        1s       262 -  263
  199     H        1s       264 -  265
  200     H        1s       266 -  267
  201     H        2px      268 +  269
  202     H        2pz      272 -  273
  203     H        2px      274 +  275
  204     H        2pz      278 -  279
  205     H        2px      283
  206     H        2px      286


  Symmetry  B2 ( 3)

  207     C        2py        7
  208     C        2py       10
  209     C        2py       13
  210     C        2py       16
  211     C        3d1-      19
  212     C        3d1-      24
  213     C        2py       40 +   41
  214     C        2py       46 +   47
  215     C        2py       52 +   53
  216     C        2py       58 +   59
  217     C        3d2-      62 -   63
  218     C        3d1-      64 +   65
  219     C        3d2-      72 -   73
  220     C        3d1-      74 +   75
  221     C        2py       94 +   95
  222     C        2py      100 +  101
  223     C        2py      106 +  107
  224     C        2py      112 +  113
  225     C        3d2-     116 -  117
  226     C        3d1-     118 +  119
  227     C        3d2-     126 -  127
  228     C        3d1-     128 +  129
  229     C        2py      142
  230     C        2py      145
  231     C        2py      148
  232     C        2py      151
  233     C        3d1-     154
  234     C        3d1-     159
  235     N        2py      169
  236     N        2py      172
  237     N        2py      175
  238     N        2py      178
  239     N        3d1-     181
  240     N        3d1-     186
  241     O        2py      202 +  203
  242     O        2py      208 +  209
  243     O        2py      214 +  215
  244     O        2py      220 +  221
  245     O        3d2-     224 -  225
  246     O        3d1-     226 +  227
  247     O        3d2-     234 -  235
  248     O        3d1-     236 +  237
  249     H        2py      252 +  253
  250     H        2py      258 +  259
  251     H        2py      270 +  271
  252     H        2py      276 +  277
  253     H        2py      284
  254     H        2py      287


  Symmetry  A2 ( 4)

  255     C        3d2-      18
  256     C        3d2-      23
  257     C        2py       40 -   41
  258     C        2py       46 -   47
  259     C        2py       52 -   53
  260     C        2py       58 -   59
  261     C        3d2-      62 +   63
  262     C        3d1-      64 -   65
  263     C        3d2-      72 +   73
  264     C        3d1-      74 -   75
  265     C        2py       94 -   95
  266     C        2py      100 -  101
  267     C        2py      106 -  107
  268     C        2py      112 -  113
  269     C        3d2-     116 +  117
  270     C        3d1-     118 -  119
  271     C        3d2-     126 +  127
  272     C        3d1-     128 -  129
  273     C        3d2-     153
  274     C        3d2-     158
  275     N        3d2-     180
  276     N        3d2-     185
  277     O        2py      202 -  203
  278     O        2py      208 -  209
  279     O        2py      214 -  215
  280     O        2py      220 -  221
  281     O        3d2-     224 +  225
  282     O        3d1-     226 -  227
  283     O        3d2-     234 +  235
  284     O        3d1-     236 -  237
  285     H        2py      252 -  253
  286     H        2py      258 -  259
  287     H        2py      270 -  271
  288     H        2py      276 -  277

  Symmetries of electric field:  B1 (2)  B2 (3)  A1 (1)

  Symmetries of magnetic field:  B2 (3)  B1 (2)  A2 (4)


                     .---------------------------------------.
                     | Starting in Integral Section (HERMIT) |
                     `---------------------------------------'



 ***************************************************************************************
 ****************** Output from **INTEGRALS input processing (HERMIT) ******************
 ***************************************************************************************


 - Using defaults, no **INTEGRALS input found

 Default print level:        1

 Calculation of one-electron Hamiltonian integrals.

 Center of mass  (bohr):      0.000000000000      0.000000000000     -0.132954597597
 Operator center (bohr):      0.000000000000      0.000000000000      0.000000000000
 Gauge origin    (bohr):      0.000000000000      0.000000000000      0.000000000000
 Dipole origin   (bohr):      0.000000000000      0.000000000000      0.000000000000


     ************************************************************************
     ************************** Output from HERINT **************************
     ************************************************************************



                      Nuclear contribution to dipole moments
                      --------------------------------------

                 au               Debye          C m (/(10**-30)

      z    -16.96750132       -43.12708382      -143.85646694


  Time used in GABGEN     is       0.11 seconds
  Total CPU  time used in HERMIT:   0.41 seconds
  Total wall time used in HERMIT:   0.41 seconds


                        .----------------------------------.
                        | End of Integral Section (HERMIT) |
                        `----------------------------------'



                   .--------------------------------------------.
                   | Starting in Wave Function Section (SIRIUS) |
                   `--------------------------------------------'


 *** Output from Huckel module :

     Using EWMO model:          F
     Using EHT  model:          T
     Number of Huckel orbitals each symmetry:   24   17    6    3

 Huckel EHT eigenvalues for symmetry :  1
          -20.724632     -15.706208     -11.414843     -11.394404     -11.376676
          -11.362578      -1.946315      -1.577783      -1.270380      -1.009934
           -0.833242      -0.736731      -0.636479      -0.617823      -0.541325
           -0.438717      -0.311596      -0.237680      -0.220007      -0.213415
           -0.205733      -0.178511      -0.166800      -0.160390

 Huckel EHT eigenvalues for symmetry :  2
          -20.702298     -11.396450     -11.377841      -1.239918      -1.145502
           -0.881942      -0.587439      -0.533869      -0.483655      -0.416874
           -0.359322      -0.331656      -0.213858      -0.202817      -0.176270
           -0.165471      -0.163315

 Huckel EHT eigenvalues for symmetry :  3
           -0.842835      -0.698613      -0.486272      -0.392480      -0.281582
           -0.236527

 Huckel EHT eigenvalues for symmetry :  4
           -0.494729      -0.460506      -0.288957

 **********************************************************************
 *SIRIUS* a direct, restricted step, second order MCSCF program       *
 **********************************************************************

 
     Date and time (Linux)  : Tue Jan 21 09:00:23 2020
     Host name              : Lab2-333-NPs                            

 Title lines from ".mol" input file:
      nitrobenzene                                                           
      Generated by the Dalton Input File Plugin for Avogadro                 

 Print level on unit LUPRI =   2 is   0
 Print level on unit LUW4  =   2 is   5

@    MC-SCF optimization.

@    Multi-configurational response calculation.
@              Type: complete active space calculation (CAS).

@    This is a combination run starting with
@              a restricted, closed shell Hartree-Fock calculation
@              an MP2 calculation

 Fock matrices are calculated directly without use of integrals on disk.

 Initial molecular orbitals are obtained according to
 ".MOSTART EHT   " input option

     Wave function specification
     ============================
@    Wave function type        --- MC-SCF ---
@    Number of closed shell electrons          54
@    Number of electrons in active shells      10
@    Total charge of the molecule               0

@    Spin multiplicity and 2 M_S                3         2
@    Total number of symmetries                 4 (point group: C2v)
@    Reference state symmetry                   1 (irrep name : A1 )

     Orbital specifications
     ======================
@    Abelian symmetry species          All |    1    2    3    4
@                                          |  A1   B1   B2   A2 
                                       --- |  ---  ---  ---  ---
@    Inactive orbitals                  27 |   15   10    2    0
@    Active orbitals                     7 |    1    1    2    3
@    Secondary orbitals                254 |   99   80   44   31
@    Total number of orbitals          288 |  115   91   48   34
@    Number of basis functions         288 |  115   91   48   34

      ** Automatic occupation of RHF orbitals **

      -- Initial occupation of symmetries is determined from extended Huckel guess.           
      -- Initial occupation of symmetries is :
@    Occupied SCF orbitals              32 |   16   10    4    2

     Optimization information
     ========================
@    Number of determinants                  56
@    Number of orbital rotations           2762
     ------------------------------------------
@    Total number of variables             2818

     Maximum number of macro iterations      40
     Maximum number of micro iterations     960
     Threshold for MCSCF gradient      1.00D-05
     Number of initial trial vectors          2
     Number of initial CI iterations          3
     Number of simultaneous trial vectors     2

@    This calculation converges to state no.   2 for the specified symmetry and spin species.

     Maximum number of NEO/NR iterations  24

    INFORMATION: Switched to "new" integral transformation (from 1988 ;-) )
    because more than 255 basis functions.


 ***********************************************
 ***** DIIS acceleration of SCF iterations *****
 ***********************************************

 C1-DIIS algorithm; max error vectors =    8

 Automatic occupation of symmetries with  64 electrons.

 Iter     Total energy    Error norm  Delta(E)    SCF occupation
 -----------------------------------------------------------------------------
   1  Screening settings (-IFTHRS, JTDIIS, DIFDEN, times)   -8    1    T  2.60D+01  2.60D+01
@  1  -432.220840662       6.18D+00  -4.32D+02    16  10   4   2
      Virial theorem: -V/T =      1.999307
@    MULPOP   C       0.47; C   _1  0.10; C   _2  0.10; C   _1  0.26; C   _2  0.26; C       0.19; N       0.09; O   _1 -0.27; O   _2 -0.27; H   _1 -0.19; 
@             H   _2 -0.19; H   _1 -0.18; H   _2 -0.18; H      -0.18; 
   1  Level shift: doubly occupied orbital energies shifted by -2.00D-01
 -----------------------------------------------------------------------------
   2  Screening settings (-IFTHRS, JTDIIS, DIFDEN, times)   -8    2    T  2.60D+01  2.60D+01
@  2  -433.794216555       1.41D+00  -1.57D+00    16  10   4   2
      Virial theorem: -V/T =      1.994066
@    MULPOP   C       1.57; C   _1  0.07; C   _2  0.07; C   _1  0.41; C   _2  0.41; C       0.38; N       0.38; O   _1 -0.56; O   _2 -0.56; H   _1 -0.45; 
@             H   _2 -0.45; H   _1 -0.41; H   _2 -0.41; H      -0.43; 
   2  Level shift: doubly occupied orbital energies shifted by -5.00D-02
 -----------------------------------------------------------------------------
   3  Screening settings (-IFTHRS, JTDIIS, DIFDEN, times)   -8    3    T  2.59D+01  2.59D+01
@  3  -433.906457657       4.27D-01  -1.12D-01    16  10   4   2
      Virial theorem: -V/T =      1.999102
@    MULPOP   C       2.02; C   _1 -0.02; C   _2 -0.02; C   _1  0.56; C   _2  0.56; C       0.31; N       0.29; O   _1 -0.65; O   _2 -0.65; H   _1 -0.51; 
@             H   _2 -0.51; H   _1 -0.46; H   _2 -0.46; H      -0.47; 
   3  Level shift: doubly occupied orbital energies shifted by -2.50D-02
 -----------------------------------------------------------------------------
   4  Screening settings (-IFTHRS, JTDIIS, DIFDEN, times)   -8    4    T  2.58D+01  2.58D+01
@  4  -433.918865791       1.46D-01  -1.24D-02    16  10   4   2
      Virial theorem: -V/T =      1.998295
@    MULPOP   C       2.03; C   _1 -0.06; C   _2 -0.06; C   _1  0.58; C   _2  0.58; C       0.33; N       0.22; O   _1 -0.63; O   _2 -0.63; H   _1 -0.50; 
@             H   _2 -0.50; H   _1 -0.45; H   _2 -0.45; H      -0.47; 
   4  Level shift: doubly occupied orbital energies shifted by -1.25D-02
 -----------------------------------------------------------------------------
   5  Screening settings (-IFTHRS, JTDIIS, DIFDEN, times)  -10    5    F  2.63D+01  2.63D+01
@  5  -433.920208460       4.92D-02  -1.34D-03    16  10   4   2
      Virial theorem: -V/T =      1.998000
@    MULPOP   C       2.05; C   _1 -0.06; C   _2 -0.06; C   _1  0.57; C   _2  0.57; C       0.31; N       0.22; O   _1 -0.64; O   _2 -0.64; H   _1 -0.49; 
@             H   _2 -0.49; H   _1 -0.44; H   _2 -0.44; H      -0.46; 
 -----------------------------------------------------------------------------
   6  Screening settings (-IFTHRS, JTDIIS, DIFDEN, times)  -10    6    T  2.60D+01  2.60D+01
@  6  -433.920384514       1.03D-02  -1.76D-04    16  10   4   2
      Virial theorem: -V/T =      1.998121
@    MULPOP   C       2.05; C   _1 -0.07; C   _2 -0.07; C   _1  0.57; C   _2  0.57; C       0.31; N       0.21; O   _1 -0.63; O   _2 -0.63; H   _1 -0.49; 
@             H   _2 -0.49; H   _1 -0.44; H   _2 -0.44; H      -0.46; 
 -----------------------------------------------------------------------------
   7  Screening settings (-IFTHRS, JTDIIS, DIFDEN, times)  -13    7    F  2.64D+01  2.64D+01
@  7  -433.920395972       3.02D-03  -1.15D-05    16  10   4   2
      Virial theorem: -V/T =      1.998113
@    MULPOP   C       2.05; C   _1 -0.07; C   _2 -0.07; C   _1  0.57; C   _2  0.57; C       0.31; N       0.21; O   _1 -0.63; O   _2 -0.63; H   _1 -0.49; 
@             H   _2 -0.49; H   _1 -0.44; H   _2 -0.44; H      -0.45; 
 -----------------------------------------------------------------------------
   8  Screening settings (-IFTHRS, JTDIIS, DIFDEN, times)  -13    8    T  2.62D+01  2.62D+01
@  8  -433.920397337       1.40D-03  -1.37D-06    16  10   4   2
      Virial theorem: -V/T =      1.998108
@    MULPOP   C       2.05; C   _1 -0.07; C   _2 -0.07; C   _1  0.57; C   _2  0.57; C       0.31; N       0.21; O   _1 -0.63; O   _2 -0.63; H   _1 -0.49; 
@             H   _2 -0.49; H   _1 -0.44; H   _2 -0.44; H      -0.45; 
 -----------------------------------------------------------------------------
   9  Screening settings (-IFTHRS, JTDIIS, DIFDEN, times)  -13    9    T  2.62D+01  2.62D+01
@  9  -433.920397734       5.53D-04  -3.97D-07    16  10   4   2
      Virial theorem: -V/T =      1.998110
@    MULPOP   C       2.05; C   _1 -0.07; C   _2 -0.07; C   _1  0.57; C   _2  0.57; C       0.31; N       0.21; O   _1 -0.63; O   _2 -0.63; H   _1 -0.49; 
@             H   _2 -0.49; H   _1 -0.44; H   _2 -0.44; H      -0.45; 
 -----------------------------------------------------------------------------
  10  Screening settings (-IFTHRS, JTDIIS, DIFDEN, times)  -13   10    T  2.62D+01  2.62D+01
@ 10  -433.920397853       2.30D-04  -1.19D-07    16  10   4   2
      Virial theorem: -V/T =      1.998110
@    MULPOP   C       2.05; C   _1 -0.07; C   _2 -0.07; C   _1  0.57; C   _2  0.57; C       0.31; N       0.21; O   _1 -0.63; O   _2 -0.63; H   _1 -0.49; 
@             H   _2 -0.49; H   _1 -0.44; H   _2 -0.44; H      -0.46; 
 -----------------------------------------------------------------------------
  11  Screening settings (-IFTHRS, JTDIIS, DIFDEN, times)  -13   11    T  2.62D+01  2.62D+01
@ 11  -433.920397871       1.01D-04  -1.83D-08    16  10   4   2
      Virial theorem: -V/T =      1.998110
@    MULPOP   C       2.05; C   _1 -0.07; C   _2 -0.07; C   _1  0.57; C   _2  0.57; C       0.31; N       0.21; O   _1 -0.63; O   _2 -0.63; H   _1 -0.49; 
@             H   _2 -0.49; H   _1 -0.44; H   _2 -0.44; H      -0.46; 
 -----------------------------------------------------------------------------
  12  Screening settings (-IFTHRS, JTDIIS, DIFDEN, times)  -13   12    T  2.62D+01  2.62D+01
@ 12  -433.920397874       3.28D-05  -2.55D-09    16  10   4   2
      Virial theorem: -V/T =      1.998110
@    MULPOP   C       2.05; C   _1 -0.07; C   _2 -0.07; C   _1  0.57; C   _2  0.57; C       0.31; N       0.21; O   _1 -0.63; O   _2 -0.63; H   _1 -0.49; 
@             H   _2 -0.49; H   _1 -0.44; H   _2 -0.44; H      -0.46; 
 -----------------------------------------------------------------------------
  13  Screening settings (-IFTHRS, JTDIIS, DIFDEN, times)  -13   13    T  2.60D+01  2.60D+01
@ 13  -433.920397874       7.15D-06  -2.07D-10    16  10   4   2
      Virial theorem: -V/T =      1.998110
@    MULPOP   C       2.05; C   _1 -0.07; C   _2 -0.07; C   _1  0.57; C   _2  0.57; C       0.31; N       0.21; O   _1 -0.63; O   _2 -0.63; H   _1 -0.49; 
@             H   _2 -0.49; H   _1 -0.44; H   _2 -0.44; H      -0.46; 
 -----------------------------------------------------------------------------
  14  Screening settings (-IFTHRS, JTDIIS, DIFDEN, times)  -13   14    T  2.59D+01  2.59D+01
@ 14  -433.920397874       3.19D-06  -5.00D-12    16  10   4   2
      Virial theorem: -V/T =      1.998110
@    MULPOP   C       2.05; C   _1 -0.07; C   _2 -0.07; C   _1  0.57; C   _2  0.57; C       0.31; N       0.21; O   _1 -0.63; O   _2 -0.63; H   _1 -0.49; 
@             H   _2 -0.49; H   _1 -0.44; H   _2 -0.44; H      -0.46; 
 -----------------------------------------------------------------------------
  15  Screening settings (-IFTHRS, JTDIIS, DIFDEN, times)  -13   15    T  2.58D+01  2.58D+01
@ 15  -433.920397874       8.57D-07  -3.87D-12    16  10   4   2

@ *** DIIS converged in  15 iterations !
@     Converged SCF energy, gradient:   -433.920397874052    8.57D-07
    - total time used in SIRFCK :              0.00 seconds

 --- Writing SIRIFC interface file

 CPU and wall time for SCF :     391.453     391.520


 ----- Output from SIRIUS MP2 module -----

 Reference: H.J.Aa.Jensen, P.Jorgensen, H.Agren, and J.Olsen,
            J. Chem. Phys. 88, 3834 (1988); 89, 5354 (1988)

 Checking that the closed shell orbitals are canonical Hartree-Fock orbitals

    Number of electrons  :   64
    Closed shell orbitals:   16   10    4    2

 Generating Fock matrix

 Hartree-Fock electronic energy:        -849.515018568463
 Hartree-Fock total      energy:        -433.920397874057

 Hartree-Fock orbital energies, symmetry 1 ( A1 ),   16 occupied SCF orbitals

       -20.68614643   -15.67128769   -11.35078294   -11.26459700   -11.25814031
       -11.24643683    -1.92173398    -1.20455437    -1.13064905    -1.02134271
        -0.87501204    -0.78634879    -0.72729923    -0.68821980    -0.62912416
        -0.53214186     0.03306948     0.04551442     0.06348651     0.10816117
         0.12414918     0.14129140     0.15501849     0.15737271     0.17013603
         0.18339419     0.20436087     0.25725822     0.26771737     0.29034867
         0.32095178     0.33474163     0.34446489     0.35968468     0.36470419
         0.39199482     0.40998714     0.42428549     0.45648139     0.47714952
         0.51202162     0.57079194     0.57558034     0.61659988     0.62559665
         0.66799571     0.67559642     0.68937771     0.71950069     0.76067131
         0.78917232     0.84640488     0.90260515     0.90683758     0.95852708
         0.99239014     1.01934113     1.06664611     1.08420785     1.09570223
         1.19730918     1.29269653     1.33714990     1.41368749     1.49762311
         1.53954954     1.54973019     1.59160893     1.60475826     1.63230889
         1.70979101     1.73418774     1.76801423     1.79482916     1.87079518
         1.95987097     1.99280403     2.03393790     2.03842621     2.21113339
         2.23738681     2.30325189     2.39439954     2.41167344     2.43945814
         2.51859485     2.57918464     2.69070891     2.75107656     2.83943561
         2.91339438     2.96767518     3.05456823     3.16457331     3.22147751
         3.34918194     3.60622532     3.71126489     3.95794122     4.17891226
        19.82056267    20.32830267    20.47153356    20.64028530    23.37038527
        23.43849180    23.48657859    23.81035307    23.91079942    24.12961004
        27.36348612    31.72902824    35.81096028    39.74219458    40.07857131

 Hartree-Fock orbital energies, symmetry 2 ( B1 ),   10 occupied SCF orbitals

       -20.68526281   -11.26457352   -11.25815421    -1.18263864    -1.03965432
        -0.85396665    -0.65967355    -0.61139093    -0.59901589    -0.51825686
         0.03880105     0.05721077     0.13315597     0.13728729     0.15180926
         0.16094731     0.18088328     0.20746543     0.25821151     0.29430365
         0.30377604     0.31585731     0.34032965     0.35885605     0.37454218
         0.39435799     0.41389920     0.43313526     0.49857005     0.55614408
         0.58228380     0.60566484     0.64999745     0.66424230     0.68736889
         0.70688867     0.76416583     0.77902919     0.83353269     0.85337642
         0.88509474     0.89772755     1.03423757     1.16962263     1.23996987
         1.32017181     1.35788965     1.38439479     1.45888064     1.50298214
         1.51213390     1.58854661     1.60678498     1.65359693     1.72141319
         1.76823434     1.78659787     1.82729607     1.87162321     1.93320292
         2.05574689     2.13997510     2.17513523     2.31857992     2.33344974
         2.38942860     2.45688309     2.52638317     2.60799531     2.73162210
         2.90976830     2.94612833     3.16274617     3.34307947     3.36237057
         3.43027719     3.94784233     4.30469511     4.62035079    20.29661070
        20.47976803    22.87959113    23.33124775    23.39546210    23.96178608
        24.13322001    24.32008800    31.32438228    35.74562585    39.94635557
        40.26783039

 Hartree-Fock orbital energies, symmetry 3 ( B2 ),    4 occupied SCF orbitals

        -0.87950109    -0.54191283    -0.42909762    -0.30050784     0.10448006
         0.11985334     0.13889423     0.18526711     0.19049024     0.23391658
         0.29960243     0.34024534     0.39154745     0.46786947     0.54708575
         0.59957524     0.67226315     0.71887450     0.79545078     0.87745099
         0.91027350     0.93206233     0.95428049     1.05045869     1.09347948
         1.14686694     1.17799445     1.48062614     1.52598745     1.62983016
         1.68080964     1.71751796     1.84985310     1.94078447     2.09507630
         2.09836052     2.17914732     2.30974555     2.57245183     2.69633398
         3.17186490     3.81374710    22.56523095    22.71427042    22.84360005
        23.04167967    30.75234427    39.44978736

 Hartree-Fock orbital energies, symmetry 4 ( A2 ),    2 occupied SCF orbitals

        -0.44568052    -0.35888060     0.09390591     0.13704538     0.19094768
         0.28228381     0.41862261     0.49484247     0.55117561     0.65876863
         0.74507308     0.88920670     0.90975219     0.94790171     1.04123458
         1.08120453     1.23032336     1.28255331     1.44478360     1.59139576
         1.69189312     1.70257406     1.87848965     1.89573891     2.11533010
         2.19081769     2.36129278     2.53872365     2.62922320     3.82269971
         4.11028451    22.70911964    22.87827208    39.39488094

    E(LUMO) :     0.03306948   (in symmetry 1)
  - E(HOMO) :    -0.30050784   (in symmetry 3)
  --------------------------
    gap     :     0.33357733

---> (Re)generating AOTWOINT


     ************************************************************************
     ************************** Output from HERINT **************************
     ************************************************************************


 Threshold for neglecting two-electron integrals:  1.00D-12
 HERMIT - Number of two-electron integrals written:   198792289 ( 23.0% )
 HERMIT - Megabytes written:                           3034.598

  Time used in TWOINT     is      36.41 seconds

 2-el. integral transformation level 5: Total CPU and WALL times (sec)     384.141     385.698

 MP2 move   0.908399 electrons to unoccupied HF orbitals


@   Hartree-Fock total energy   :          -433.9203978741
@   + MP2 contribution          :            -1.6680007358
@   = MP2 second order energy   :          -435.5883986099

 Natural orbital occupation numbers, symmetry 1 (irrep A1 )
 Sum =    31.98079138; RHF =    32.00000000; Difference =    -0.01920862

         1.99928623     1.99906067     1.99876108     1.99875755     1.99875201
         1.99874841     1.98915058     1.98420621     1.97977626     1.97431515
         1.96971267     1.96629813     1.96353261     1.95982798     1.95466764
         1.94748626     0.03780903     0.02586191     0.02426500     0.02259625
         0.01900292     0.01738908     0.01659214     0.01359859     0.01340839
         0.01230014     0.00998642     0.00892484     0.00830932     0.00775344
         0.00680637     0.00645572     0.00468607     0.00436339     0.00335280
         0.00298780     0.00288071     0.00261799     0.00236539     0.00205069
         0.00182257     0.00169443     0.00150917     0.00129691     0.00127864
         0.00117979     0.00106855     0.00096063     0.00073655     0.00065692
         0.00061803     0.00051133     0.00048796     0.00044632     0.00042464
         0.00041419     0.00039875     0.00037443     0.00035533     0.00034407
         0.00033146     0.00032256     0.00031602     0.00030627     0.00028133
         0.00026186     0.00023302     0.00022462     0.00021956     0.00019812
         0.00019346     0.00018367     0.00017699     0.00017394     0.00016769
         0.00016045     0.00015330     0.00014399     0.00013802     0.00013639
         0.00013289     0.00012642     0.00011738     0.00010486     0.00010137
         0.00009318     0.00007856     0.00006574     0.00005894     0.00005211
         0.00004546     0.00003618     0.00003363     0.00002571     0.00001784
         0.00001681     0.00001394     0.00001255     0.00001080     0.00000970
         0.00000914     0.00000750     0.00000677     0.00000391     0.00000237
         0.00000122     0.00000093     0.00000077     0.00000056     0.00000031
         0.00000017     0.00000009    -0.00000008    -0.00000068    -0.00000141

 Natural orbital occupation numbers, symmetry 2 (irrep B1 )
 Sum =    20.00524665; RHF =    20.00000000; Difference =     0.00524665

         1.99928174     1.99875753     1.99874971     1.98155773     1.97999103
         1.97255754     1.96083042     1.95557178     1.95425602     1.94735345
         0.04494343     0.02994049     0.02498734     0.02323735     0.01702884
         0.01641266     0.01573950     0.01185905     0.00958350     0.00910603
         0.00807865     0.00559031     0.00533187     0.00350136     0.00322163
         0.00306134     0.00251029     0.00217188     0.00211528     0.00165226
         0.00162359     0.00146440     0.00135176     0.00131376     0.00104997
         0.00098961     0.00068027     0.00064333     0.00054313     0.00045742
         0.00042511     0.00039698     0.00037051     0.00034063     0.00033313
         0.00029819     0.00028904     0.00027784     0.00025036     0.00021711
         0.00020893     0.00019839     0.00018860     0.00018304     0.00018078
         0.00017178     0.00016730     0.00016214     0.00015152     0.00014365
         0.00013788     0.00013444     0.00012429     0.00012017     0.00010689
         0.00010171     0.00009287     0.00007876     0.00005169     0.00004610
         0.00003434     0.00003077     0.00002983     0.00002368     0.00001646
         0.00001367     0.00001200     0.00001133     0.00000925     0.00000868
         0.00000445     0.00000300     0.00000136     0.00000129     0.00000060
         0.00000036     0.00000027     0.00000012    -0.00000007    -0.00000066
        -0.00000117

 Natural orbital occupation numbers, symmetry 3 (irrep B2 )
 Sum =     7.99284086; RHF =     8.00000000; Difference =    -0.00715914

         1.97801296     1.95912662     1.94529359     1.90750862     0.07096467
         0.03187745     0.01575679     0.01449540     0.01088732     0.01020086
         0.00896943     0.00715255     0.00702123     0.00534053     0.00403815
         0.00333972     0.00228720     0.00162533     0.00147176     0.00091480
         0.00089613     0.00070646     0.00055490     0.00048343     0.00047699
         0.00043531     0.00039140     0.00034784     0.00030460     0.00024566
         0.00021421     0.00020174     0.00019212     0.00018257     0.00017260
         0.00013776     0.00012648     0.00011771     0.00009904     0.00009330
         0.00007701     0.00005546     0.00002472     0.00002006     0.00001116
         0.00000736     0.00000173    -0.00002184

 Natural orbital occupation numbers, symmetry 4 (irrep A2 )
 Sum =     4.02112111; RHF =     4.00000000; Difference =     0.02112111

         1.96848087     1.91292281     0.06957616     0.01615834     0.01102576
         0.00970376     0.00728241     0.00579610     0.00437485     0.00374542
         0.00272940     0.00189188     0.00146549     0.00096544     0.00079561
         0.00074415     0.00062940     0.00053561     0.00041508     0.00037693
         0.00031408     0.00023930     0.00019765     0.00018913     0.00015423
         0.00013427     0.00012453     0.00009965     0.00007491     0.00005064
         0.00002213     0.00001900     0.00000855    -0.00012244

 Time used for MP2 natural orbitals :     413.844 CPU seconds,     415.387 wall seconds.

 CPU and wall time for MP2 :     413.844     415.387


        SIRIUS MCSCF optimization (SIROPT)
 ================================================


 Fock matrix screening setting for SIRCNO: IFTHRS =    9


 ----- Output from SIRIUS CI module (CICTL) -----




 2-el. integral transformation level 0: Total CPU and WALL times (sec)      91.906      91.985


 --- SIRCI.CIST1: plus combination of all degenerate
                 configurations is used as start vectors.


 (CIST1) 18 lowest diagonal elements:

 Element no. Config.no.    Active energy      Total energy

         1 :         47    -15.1621404280   -433.6942300297
         2 :         48    -14.8516352766   -433.3837248783
         3 :         56    -14.7277564471   -433.2598460487
         4 :         51    -14.5415656468   -433.0736552485
         5 :         31    -14.4225856375   -432.9546752392
         6 :          9    -14.4206282761   -432.9527178778
         7 :         49    -14.4086316956   -432.9407212973
         8 :         39    -14.4050149426   -432.9371045443
         9 :         19    -14.2952044692   -432.8272940709
        10 :         34    -14.2828081082   -432.8148977099
        11 :         10    -14.2806425308   -432.8127321324
        12 :         50    -14.2621442280   -432.7942338296
        13 :         40    -14.2587667548   -432.7908563565
        14 :         21    -14.1880482564   -432.7201378581
        15 :         32    -14.1304377579   -432.6625273596
        16 :         15    -14.1289061199   -432.6609957215
        17 :          5    -14.1025722912   -432.6346618928
        18 :         24    -14.0926990785   -432.6247886802


 Convergence threshold for CI optimization :     0.00000500



 *** Reached maximum number of CI iterations:    3
              1 CI roots are not converged.


@ Final CI energies and residuals in symmetry 1 (irrep A1 )
@    1     -433.696949041271580       7.13D-02
@    2     -433.389713592450505       2.02D-04
@    3     -433.257486504777091       7.40D-02
@    4     -433.073381516134077       5.10D-02
@    5     -433.008339660616684       2.92D-02
@    6     -432.899058462662822       9.70D-02

   --- OUTPUT FROM SIRCNO     Keyword = FD+NO 


 Occupations of CAS natural orbitals:

 Symmetry  1 ( irrep A1  in C2v )

   1.993688956

 Symmetry  2 ( irrep B1  in C2v )

   0.006324385

 Symmetry  3 ( irrep B2  in C2v )

   1.999975447   1.999659260

 Symmetry  4 ( irrep A2  in C2v )

   1.000328116   1.999999209   1.000024627


 --- MACRO ITERATION  1 ---
 --------------------------

 2-el. integral transformation level 3: Total CPU and WALL times (sec)      93.422      93.429

 Fock matrix screening setting for this macro iteration: 10^( -9)

 Total MCSCF energy       :          -433.389713592281737  (MACRO    1)

 - Nuclear repulsion      :           415.594620694406615
 - Inactive energy        :          -834.126710293975407
 - Active energy          :           -14.857623992712973

 Norm of total gradient   :             1.681507010133
 -    of CI gradient      :             0.000404016016
 -    of orbital gradient :             1.681506961597
      Virial theorem: -V/T =      1.988697
@    MULPOP   C       1.95; C   _1 -0.18; C   _2 -0.18; C   _1  0.29; C   _2  0.29; C       0.37; N       1.13; O   _1 -0.56; O   _2 -0.56; H   _1 -0.54; 
@             H   _2 -0.54; H   _1 -0.47; H   _2 -0.47; H      -0.49; 

 Residual norm when dim(red L) =   7
 NEO root     CSF        orbital          total
    1     0.01302745     0.01958858     0.02352502 converged

 (NEONEX) NEO auxiliary root no.  1 is converged.

 (SIRNEO) iteration (  1,  7)
 Micro iteration termination criterion met, EVAL(ISTATE+1) = -1.32D-02

   --- OUTPUT FROM SIRCNO     Keyword = FD+NO 


 Occupations of CAS natural orbitals:

 Symmetry  1 ( irrep A1  in C2v )

   1.993685172

 Symmetry  2 ( irrep B1  in C2v )

   0.006328333

 Symmetry  3 ( irrep B2  in C2v )

   1.999974565   1.999655393

 Symmetry  4 ( irrep A2  in C2v )

   1.000331969   1.999999141   1.000025428


 --- MACRO ITERATION  2 ---
 --------------------------

 2-el. integral transformation level 3: Total CPU and WALL times (sec)      94.703      94.770

 Fock matrix screening setting for this macro iteration: 10^( -9)

 Total MCSCF energy       :          -433.636824372873093  (MACRO    2)

 - Nuclear repulsion      :           415.594620694406615
 - Inactive energy        :          -834.106219025052496
 - Active energy          :           -15.125226042227197

 Norm of total gradient   :             0.230038988741
 -    of CI gradient      :             0.028727460462
 -    of orbital gradient :             0.228238185579
      Virial theorem: -V/T =      1.988605
@    MULPOP   C       2.36; C   _1 -0.20; C   _2 -0.20; C   _1  0.48; C   _2  0.48; C       0.38; N       0.80; O   _1 -0.69; O   _2 -0.69; H   _1 -0.62; 
@             H   _2 -0.62; H   _1 -0.51; H   _2 -0.51; H      -0.46; 

 Residual norm when dim(red L) =   7
 NEO root     CSF        orbital          total
    1     0.02536261     0.06719082     0.07181830 converged

 (NEONEX) NEO auxiliary root no.  1 is converged.

 (SIRNEO) iteration (  2,  5)
 Micro iteration termination criterion met, EVAL(ISTATE+1) = -1.54D-02

   --- OUTPUT FROM SIRCNO     Keyword = FD+NO 


 Occupations of CAS natural orbitals:

 Symmetry  1 ( irrep A1  in C2v )

   1.986167593

 Symmetry  2 ( irrep B1  in C2v )

   0.013843791

 Symmetry  3 ( irrep B2  in C2v )

   1.999965915   1.997021460

 Symmetry  4 ( irrep A2  in C2v )

   1.000034528   1.999994956   1.002971756


 --- MACRO ITERATION  3 ---
 --------------------------

 2-el. integral transformation level 3: Total CPU and WALL times (sec)      93.922      93.912

 Fock matrix screening setting for this macro iteration: 10^( -9)

 Total MCSCF energy       :          -433.649753191041214  (MACRO    3)

 - Nuclear repulsion      :           415.594620694406615
 - Inactive energy        :          -833.738385381888406
 - Active energy          :           -15.505988503559420

 Norm of total gradient   :             0.131422744034
 -    of CI gradient      :             0.028090419911
 -    of orbital gradient :             0.128385614298
      Virial theorem: -V/T =      1.988577
@    MULPOP   C       2.05; C   _1 -0.20; C   _2 -0.20; C   _1  0.49; C   _2  0.49; C       0.36; N       1.23; O   _1 -0.78; O   _2 -0.78; H   _1 -0.61; 
@             H   _2 -0.61; H   _1 -0.50; H   _2 -0.50; H      -0.45; 

 Residual norm when dim(red L) =   5
 NEO root     CSF        orbital          total
    1     0.08951876     0.03890294     0.09760660 converged

 (NEONEX) NEO auxiliary root no.  1 is converged.

 (SIRNEO) iteration (  3,  7)
 Micro iteration termination criterion met, EVAL(ISTATE+1) = -8.00D-03

   --- OUTPUT FROM SIRCNO     Keyword = FD+NO 


 Occupations of CAS natural orbitals:

 Symmetry  1 ( irrep A1  in C2v )

   1.977237674

 Symmetry  2 ( irrep B1  in C2v )

   0.022859755

 Symmetry  3 ( irrep B2  in C2v )

   1.997679036   1.999764660

 Symmetry  4 ( irrep A2  in C2v )

   1.000143850   1.999986681   1.002328344


 --- MACRO ITERATION  4 ---
 --------------------------

 2-el. integral transformation level 3: Total CPU and WALL times (sec)      93.688      93.684

 Fock matrix screening setting for this macro iteration: 10^( -9)

 Total MCSCF energy       :          -433.656264777088325  (MACRO    4)

 - Nuclear repulsion      :           415.594620694406615
 - Inactive energy        :          -833.672953512535742
 - Active energy          :           -15.577931958959185

 Norm of total gradient   :             0.150809737879
 -    of CI gradient      :             0.057179624036
 -    of orbital gradient :             0.139549516782
      Virial theorem: -V/T =      1.985328
@    MULPOP   C       2.38; C   _1 -0.21; C   _2 -0.21; C   _1  0.49; C   _2  0.49; C       0.37; N       1.26; O   _1 -0.97; O   _2 -0.97; H   _1 -0.61; 
@             H   _2 -0.61; H   _1 -0.49; H   _2 -0.49; H      -0.44; 

 Residual norm when dim(red L) =   8
 NEO root     CSF        orbital          total
    1     0.04184285     0.05298869     0.06751759 converged

 (NEONEX) NEO auxiliary root no.  1 is converged.

 (SIRNEO) iteration (  4,  6)
 Micro iteration termination criterion met, EVAL(ISTATE+1) = -1.28D-02

   --- OUTPUT FROM SIRCNO     Keyword = FD+NO 


 Occupations of CAS natural orbitals:

 Symmetry  1 ( irrep A1  in C2v )

   1.969223021

 Symmetry  2 ( irrep B1  in C2v )

   0.030834763

 Symmetry  3 ( irrep B2  in C2v )

   1.999787861   1.987626068

 Symmetry  4 ( irrep A2  in C2v )

   1.000190005   1.999969717   1.012368565


 --- MACRO ITERATION  5 ---
 --------------------------

 2-el. integral transformation level 3: Total CPU and WALL times (sec)      93.688      93.691

 Fock matrix screening setting for this macro iteration: 10^( -9)

 Total MCSCF energy       :          -433.662916040979439  (MACRO    5)

 - Nuclear repulsion      :           415.594620694406615
 - Inactive energy        :          -832.806598862876626
 - Active energy          :           -16.450937872509432

 Norm of total gradient   :             0.170157878139
 -    of CI gradient      :             0.092476371158
 -    of orbital gradient :             0.142834954651
      Virial theorem: -V/T =      1.986770
@    MULPOP   C       2.24; C   _1 -0.27; C   _2 -0.27; C   _1  0.64; C   _2  0.64; C       0.30; N       1.08; O   _1 -0.87; O   _2 -0.87; H   _1 -0.60; 
@             H   _2 -0.60; H   _1 -0.48; H   _2 -0.48; H      -0.44; 

 Residual norm when dim(red L) =   6
 NEO root     CSF        orbital          total
    1     0.08219272     0.05311698     0.09786244 converged

 (NEONEX) NEO auxiliary root no.  1 is converged.

 Residual norm when dim(red L) =  16
 NEO root     CSF        orbital          total
    2     0.02846406     0.01148235     0.03069279 converged

 (NEONEX) NEO vector is converged.

   --- OUTPUT FROM SIRCNO     Keyword = FD+NO 


 Occupations of CAS natural orbitals:

 Symmetry  1 ( irrep A1  in C2v )

   1.959418978

 Symmetry  2 ( irrep B1  in C2v )

   0.040699689

 Symmetry  3 ( irrep B2  in C2v )

   1.999885264   1.979599258

 Symmetry  4 ( irrep A2  in C2v )

   1.000097326   1.999982882   1.020316602


 --- MACRO ITERATION  6 ---
 --------------------------

 2-el. integral transformation level 3: Total CPU and WALL times (sec)      93.875      93.916

 Fock matrix screening setting for this macro iteration: 10^( -9)

 Total MCSCF energy       :          -433.680082586837898  (MACRO    6)

 - Nuclear repulsion      :           415.594620694406615
 - Inactive energy        :          -831.890702035212826
 - Active energy          :           -17.384001246031698

 Norm of total gradient   :             0.156730815340
 -    of CI gradient      :             0.098608398654
 -    of orbital gradient :             0.121823364722
      Virial theorem: -V/T =      1.983230
@    MULPOP   C       2.25; C   _1 -0.07; C   _2 -0.07; C   _1  0.69; C   _2  0.69; C       0.37; N       0.84; O   _1 -1.05; O   _2 -1.05; H   _1 -0.59; 
@             H   _2 -0.59; H   _1 -0.49; H   _2 -0.49; H      -0.45; 

 Residual norm when dim(red L) =   6
 NEO root     CSF        orbital          total
    1     0.05187587     0.03990223     0.06544688 converged

 (NEONEX) NEO auxiliary root no.  1 is converged.

 Residual norm when dim(red L) =  11
 NEO root     CSF        orbital          total
    2     0.02659903     0.01382538     0.02997749 converged

 (NEONEX) NEO vector is converged.

   --- OUTPUT FROM SIRCNO     Keyword = FD+NO 


 Occupations of CAS natural orbitals:

 Symmetry  1 ( irrep A1  in C2v )

   1.956291562

 Symmetry  2 ( irrep B1  in C2v )

   0.044416544

 Symmetry  3 ( irrep B2  in C2v )

   1.999962491   1.973748597

 Symmetry  4 ( irrep A2  in C2v )

   1.000035917   1.999998097   1.025546792


 --- MACRO ITERATION  7 ---
 --------------------------

 2-el. integral transformation level 3: Total CPU and WALL times (sec)      93.594      93.585

 Fock matrix screening setting for this macro iteration: 10^( -9)

 Total MCSCF energy       :          -433.695597927956044  (MACRO    7)

 - Nuclear repulsion      :           415.594620694406615
 - Inactive energy        :          -831.324248916128113
 - Active energy          :           -17.965969706234560

 Norm of total gradient   :             0.098015462719
 -    of CI gradient      :             0.075438686446
 -    of orbital gradient :             0.062578235188
      Virial theorem: -V/T =      1.978261
@    MULPOP   C       2.58; C   _1  0.21; C   _2  0.21; C   _1  0.68; C   _2  0.68; C       0.40; N       0.43; O   _1 -1.28; O   _2 -1.28; H   _1 -0.60; 
@             H   _2 -0.60; H   _1 -0.49; H   _2 -0.49; H      -0.46; 

 Residual norm when dim(red L) =  16
 NEO root     CSF        orbital          total
    1     0.04045280     0.02300033     0.04653434 converged

 (NEONEX) NEO auxiliary root no.  1 is converged.

 Residual norm when dim(red L) =  21
 NEO root     CSF        orbital          total
    2     0.00740746     0.00343070     0.00816334 converged

 (NEONEX) NEO vector is converged.

   --- OUTPUT FROM SIRCNO     Keyword = FD+NO 


 Occupations of CAS natural orbitals:

 Symmetry  1 ( irrep A1  in C2v )

   1.963897598

 Symmetry  2 ( irrep B1  in C2v )

   0.036925166

 Symmetry  3 ( irrep B2  in C2v )

   1.999992597   1.979342999

 Symmetry  4 ( irrep A2  in C2v )

   1.000007124   1.999998657   1.019835858


 --- MACRO ITERATION  8 ---
 --------------------------

 2-el. integral transformation level 3: Total CPU and WALL times (sec)      93.969      93.983

 Fock matrix screening setting for this macro iteration: 10^( -9)

 Total MCSCF energy       :          -433.698773746183974  (MACRO    8)

 - Nuclear repulsion      :           415.594620694406615
 - Inactive energy        :          -831.284549360436586
 - Active energy          :           -18.008845080153989

 Norm of total gradient   :             0.015175788704
 -    of CI gradient      :             0.010845353241
 -    of orbital gradient :             0.010615219068
      Virial theorem: -V/T =      1.977283
@    MULPOP   C       2.84; C   _1  0.34; C   _2  0.34; C   _1  0.52; C   _2  0.52; C       0.34; N       0.35; O   _1 -1.29; O   _2 -1.29; H   _1 -0.60; 
@             H   _2 -0.60; H   _1 -0.50; H   _2 -0.50; H      -0.46; 

 Residual norm when dim(red L) =   6
 NEO root     CSF        orbital          total
    1     0.04526518     0.01541526     0.04781805 converged

 (NEONEX) NEO auxiliary root no.  1 is converged.

 Residual norm when dim(red L) =  20
 NEO root     CSF        orbital          total
    2     0.00213898     0.00170750     0.00273694 converged

 (NEONEX) NEO vector is converged.

   --- OUTPUT FROM SIRCNO     Keyword = FD+NO 


 Occupations of CAS natural orbitals:

 Symmetry  1 ( irrep A1  in C2v )

   1.963974491

 Symmetry  2 ( irrep B1  in C2v )

   0.036812259

 Symmetry  3 ( irrep B2  in C2v )

   1.999999282   1.979376163

 Symmetry  4 ( irrep A2  in C2v )

   1.000000388   1.999998409   1.019839009


 --- MACRO ITERATION  9 ---
 --------------------------

 2-el. integral transformation level 3: Total CPU and WALL times (sec)      93.859      93.901

 Fock matrix screening setting for this macro iteration: 10^( -9)

 Total MCSCF energy       :          -433.698831479802209  (MACRO    9)

 - Nuclear repulsion      :           415.594620694406615
 - Inactive energy        :          -831.047743198866783
 - Active energy          :           -18.245708975342062

 Norm of total gradient   :             0.003171295502
 -    of CI gradient      :             0.002587950724
 -    of orbital gradient :             0.001832928316
      Virial theorem: -V/T =      1.977479
@    MULPOP   C       3.00; C   _1  0.25; C   _2  0.25; C   _1  0.48; C   _2  0.48; C       0.48; N       0.29; O   _1 -1.29; O   _2 -1.29; H   _1 -0.60; 
@             H   _2 -0.60; H   _1 -0.50; H   _2 -0.50; H      -0.46; 

 Residual norm when dim(red L) =   6
 NEO root     CSF        orbital          total
    1     0.01356518     0.00529713     0.01456275 converged

 (NEONEX) NEO auxiliary root no.  1 is converged.

 Residual norm when dim(red L) =  23
 NEO root     CSF        orbital          total
    2     0.00044995     0.00017105     0.00048137 converged

 (NEONEX) NEO vector is converged.

   --- OUTPUT FROM SIRCNO     Keyword = FD+NO 


 Occupations of CAS natural orbitals:

 Symmetry  1 ( irrep A1  in C2v )

   1.963991855

 Symmetry  2 ( irrep B1  in C2v )

   0.036801231

 Symmetry  3 ( irrep B2  in C2v )

   1.999999833   1.979370605

 Symmetry  4 ( irrep A2  in C2v )

   1.000000095   1.999998789   1.019837592


 --- MACRO ITERATION 10 ---
 --------------------------

 2-el. integral transformation level 3: Total CPU and WALL times (sec)      93.469      93.475

 Fock matrix screening setting for this macro iteration: 10^( -9)

 Total MCSCF energy       :          -433.698833894847496  (MACRO   10)

 - Nuclear repulsion      :           415.594620694406615
 - Inactive energy        :          -831.180158919149562
 - Active energy          :           -18.113295670104542

 Norm of total gradient   :             0.000497511647
 -    of CI gradient      :             0.000463826514
 -    of orbital gradient :             0.000179952226
      Virial theorem: -V/T =      1.977491
@    MULPOP   C       3.01; C   _1  0.28; C   _2  0.28; C   _1  0.47; C   _2  0.47; C       0.43; N       0.31; O   _1 -1.29; O   _2 -1.29; H   _1 -0.60; 
@             H   _2 -0.60; H   _1 -0.50; H   _2 -0.50; H      -0.46; 

 Residual norm when dim(red L) =   6
[...]
         1    5.03216D+03  3.95D+03  3.12D+03  2.52D+05    0.00000D+00

 ** RSPCTL MICROITERATION NUMBER    5

       No.  Residual tot.,    conf., and orb.    Bnorm      Frequency 
      ----------------------------------------------------------------
         1    3.55671D+03  8.51D+02  3.45D+03  2.68D+05    0.00000D+00

 ** RSPCTL MICROITERATION NUMBER    6

       No.  Residual tot.,    conf., and orb.    Bnorm      Frequency 
      ----------------------------------------------------------------
         1    1.54699D+03  9.11D+02  1.25D+03  2.80D+05    0.00000D+00

 ** RSPCTL MICROITERATION NUMBER    7

       No.  Residual tot.,    conf., and orb.    Bnorm      Frequency 
      ----------------------------------------------------------------
         1    9.96723D+02  9.15D+02  3.95D+02  2.82D+05    0.00000D+00

 ** RSPCTL MICROITERATION NUMBER    8

       No.  Residual tot.,    conf., and orb.    Bnorm      Frequency 
      ----------------------------------------------------------------
         1    4.45484D+02  6.35D+01  4.41D+02  2.82D+05    0.00000D+00

 ** RSPCTL MICROITERATION NUMBER    9

       No.  Residual tot.,    conf., and orb.    Bnorm      Frequency 
      ----------------------------------------------------------------
         1    2.08248D+02  7.63D+01  1.94D+02  2.83D+05    0.00000D+00

 *** THE REQUESTED    1 SOLUTION VECTORS CONVERGED

 Convergence of RSP solution vectors, threshold = 1.00D-03
 ---------------------------------------------------------------
 (dimension of paired reduced space:   20)
 RSP solution vector no.    1; norm of residual   7.37D-04

 *** RSPCTL MICROITERATIONS CONVERGED
    XDIPLEN     YDIPLEN      freq1     freq2                Norm
 ---------------------------------------------------------------
                          0.058400 -0.058400     282575.50453440
 INFO: Inact-act orbital rotation         207         209  pruned
 INFO: Inact-act orbital rotation         208         209  pruned

INFO:    2 redundant orbital rotations pruned.


 Perturbation symmetry.     KSYMOP:       1
 Perturbation spin symmetry.TRPLET:       F
 Orbital variables.         KZWOPT:    2760
 Configuration variables.   KZCONF:      56
 Total number of variables. KZVAR :    2816


 CRLRV2 -- linear response calc for sym:  1
 CRLRV2 -- operator label1: YDIPLEN 
 CRLRV2 -- operator label2: YDIPLEN 
 CRLRV2 -- freqr1 :   5.840000D-02
 CRLRV2 -- freqr2 :   5.840000D-02



 ---  SOLVING SETS OF LINEAR EQUATIONS FOR LINEAR RESPONSE PROPERTIES ---

 Operator symmetry = 1  ( A1 ); triplet =   F


 ** RSPCTL MICROITERATION NUMBER    1

       No.  Residual tot.,    conf., and orb.    Bnorm      Frequency 
      ----------------------------------------------------------------
         1    1.02583D+03  8.36D+01  1.02D+03  9.20D+03    1.16800D-01

 ** RSPCTL MICROITERATION NUMBER    2

       No.  Residual tot.,    conf., and orb.    Bnorm      Frequency 
      ----------------------------------------------------------------
         1    1.60083D+03  2.20D+02  1.59D+03  2.13D+04    1.16800D-01

 ** RSPCTL MICROITERATION NUMBER    3

 *** INFO, negative eigenvalues in reduced matrix. Symmetry  1,  triplet       F Dimension of reduced matrix =     8

 GP * SOLUTION vector at frequency     0.11680 a.u.
 after    4 linear transformations is     -1.41502138D+07
 INERTIA (POS,ZER,NEG) of reduced matrix is    7    0    1
 Determinant of reduced matrix is -1.45 * 10 ** -7.0

       No.  Residual tot.,    conf., and orb.    Bnorm      Frequency 
      ----------------------------------------------------------------
         1    6.71445D+03  8.24D+02  6.66D+03  7.51D+04    1.16800D-01

 ** RSPCTL MICROITERATION NUMBER    4

 *** INFO, negative eigenvalues in reduced matrix. Symmetry  1,  triplet       F Dimension of reduced matrix =    10

 GP * SOLUTION vector at frequency     0.11680 a.u.
 after    5 linear transformations is      1.29446838D+06
 INERTIA (POS,ZER,NEG) of reduced matrix is    9    0    1
 Determinant of reduced matrix is -2.48 * 10 ** -7.0

       No.  Residual tot.,    conf., and orb.    Bnorm      Frequency 
      ----------------------------------------------------------------
         1    1.00354D+03  2.00D+02  9.83D+02  1.18D+04    1.16800D-01

 ** RSPCTL MICROITERATION NUMBER    5

 *** INFO, negative eigenvalues in reduced matrix. Symmetry  1,  triplet       F Dimension of reduced matrix =    12

 GP * SOLUTION vector at frequency     0.11680 a.u.
 after    6 linear transformations is      1.73429886D+06
 INERTIA (POS,ZER,NEG) of reduced matrix is   11    0    1
 Determinant of reduced matrix is -1.70 * 10 ** -7.0

       No.  Residual tot.,    conf., and orb.    Bnorm      Frequency 
      ----------------------------------------------------------------
         1    4.58488D+02  1.95D+02  4.15D+02  1.18D+04    1.16800D-01

 ** RSPCTL MICROITERATION NUMBER    6

 *** INFO, negative eigenvalues in reduced matrix. Symmetry  1,  triplet       F Dimension of reduced matrix =    14

 GP * SOLUTION vector at frequency     0.11680 a.u.
 after    7 linear transformations is      1.80825876D+06
 INERTIA (POS,ZER,NEG) of reduced matrix is   13    0    1
 Determinant of reduced matrix is -2.78 * 10 ** -7.0

       No.  Residual tot.,    conf., and orb.    Bnorm      Frequency 
      ----------------------------------------------------------------
         1    2.39329D+02  1.91D+02  1.44D+02  1.18D+04    1.16800D-01

 ** RSPCTL MICROITERATION NUMBER    7

 *** INFO, negative eigenvalues in reduced matrix. Symmetry  1,  triplet       F Dimension of reduced matrix =    16

 GP * SOLUTION vector at frequency     0.11680 a.u.
 after    8 linear transformations is      1.86056673D+06
 INERTIA (POS,ZER,NEG) of reduced matrix is   15    0    1
 Determinant of reduced matrix is -1.12 * 10 ** -8.0

       No.  Residual tot.,    conf., and orb.    Bnorm      Frequency 
      ----------------------------------------------------------------
         1    3.73934D+02  3.00D+02  2.24D+02  1.22D+04    1.16800D-01

 ** RSPCTL MICROITERATION NUMBER    8

 *** INFO, negative eigenvalues in reduced matrix. Symmetry  1,  triplet       F Dimension of reduced matrix =    18

 GP * SOLUTION vector at frequency     0.11680 a.u.
 after    9 linear transformations is      1.81031788D+06
 INERTIA (POS,ZER,NEG) of reduced matrix is   16    0    2
 Determinant of reduced matrix is  2.62 * 10 ** -8.0

       No.  Residual tot.,    conf., and orb.    Bnorm      Frequency 
      ----------------------------------------------------------------
         1    2.28164D+02  7.93D-01  2.28D+02  1.17D+04    1.16800D-01

 ** RSPCTL MICROITERATION NUMBER    9

 *** INFO, negative eigenvalues in reduced matrix. Symmetry  1,  triplet       F Dimension of reduced matrix =    20

 GP * SOLUTION vector at frequency     0.11680 a.u.
 after   10 linear transformations is      1.83415708D+06
 INERTIA (POS,ZER,NEG) of reduced matrix is   18    0    2
 Determinant of reduced matrix is  5.26 * 10 ** -8.0

       No.  Residual tot.,    conf., and orb.    Bnorm      Frequency 
      ----------------------------------------------------------------
         1    6.46065D+01  2.41D+00  6.46D+01  1.18D+04    1.16800D-01

 ** RSPCTL MICROITERATION NUMBER   10

 *** INFO, negative eigenvalues in reduced matrix. Symmetry  1,  triplet       F Dimension of reduced matrix =    22

 GP * SOLUTION vector at frequency     0.11680 a.u.
 after   11 linear transformations is      1.83668020D+06
 INERTIA (POS,ZER,NEG) of reduced matrix is   20    0    2
 Determinant of reduced matrix is  5.40 * 10 ** -8.0

       No.  Residual tot.,    conf., and orb.    Bnorm      Frequency 
      ----------------------------------------------------------------
         1    2.90053D+01  2.64D+00  2.89D+01  1.18D+04    1.16800D-01

 ** RSPCTL MICROITERATION NUMBER   11

 *** INFO, negative eigenvalues in reduced matrix. Symmetry  1,  triplet       F Dimension of reduced matrix =    24

 GP * SOLUTION vector at frequency     0.11680 a.u.
 after   12 linear transformations is      1.83706012D+06
 INERTIA (POS,ZER,NEG) of reduced matrix is   22    0    2
 Determinant of reduced matrix is  5.42 * 10 ** -8.0

       No.  Residual tot.,    conf., and orb.    Bnorm      Frequency 
      ----------------------------------------------------------------
         1    1.13620D+01  2.54D+00  1.11D+01  1.18D+04    1.16800D-01

 *** THE REQUESTED    1 SOLUTION VECTORS CONVERGED

 Convergence of RSP solution vectors, threshold = 1.00D-03
 ---------------------------------------------------------------
 (dimension of paired reduced space:   24)
 RSP solution vector no.    1; norm of residual   9.60D-04

 *** RSPCTL MICROITERATIONS CONVERGED
    YDIPLEN     YDIPLEN      freq1     freq2                Norm
 ---------------------------------------------------------------
                          0.058400  0.058400      11830.50204565
  Time used in CRVEC2     is       2 hours 25 minutes 10 seconds


 ----- CALCULATING CONTRIBUTIONS TO SECOND HYPERPOLARIZABILITY -----


   Contribution                Term         Accumulated
 ------------------------------------------------------
 Na T[4] Nb Nc Nd   143725.00550147     143725.00550147
 Na T[3] Nx Nyz    -424822.79939363    -281097.79389215
 Na X[3] Ny Nz      166507.03313079    -114590.76076137
 Nx A[3] Ny Nz       55502.34437693     -59088.41638444
 Na X[2] Nyz       -144384.64262372    -203473.05900816
 Nx A[2] Nyz       -158160.69782323    -361633.75683139

@ Cubic response function value in a.u. for
@ A operator, symmetry, frequency:   ZDIPLEN    1 -0.058400
@ B operator, symmetry, frequency:   ZDIPLEN    1  0.058400
@ C operator, symmetry, frequency:   ZDIPLEN    1 -0.058400
@ D operator, symmetry, frequency:   ZDIPLEN    1  0.058400

@ << A; B, C, D >>  =     -361633.75683139



   Contribution                Term         Accumulated
 ------------------------------------------------------
 Na T[4] Nb Nc Nd  7480540.17506986    7480540.17506986
 Na T[3] Nx Nyz   -4118382.62937401    3362157.54569585
 Na X[3] Ny Nz     5029645.07436500    8391802.62006085
 Nx A[3] Ny Nz       31413.09566732    8423215.71572817
 Na X[2] Nyz      11479089.43076556   19902305.14649373
 Nx A[2] Nyz      -1357797.26107183   18544507.88542190

@ Cubic response function value in a.u. for
@ A operator, symmetry, frequency:   XDIPLEN    2 -0.058400
@ B operator, symmetry, frequency:   XDIPLEN    2  0.058400
@ C operator, symmetry, frequency:   ZDIPLEN    1 -0.058400
@ D operator, symmetry, frequency:   ZDIPLEN    1  0.058400

@ << A; B, C, D >>  =    18544507.88542190



   Contribution                Term         Accumulated
 ------------------------------------------------------
 Na T[4] Nb Nc Nd   344117.46105612     344117.46105612
 Na T[3] Nx Nyz     430384.63773582     774502.09879195
 Na X[3] Ny Nz      270598.13260289    1045100.23139484
 Nx A[3] Ny Nz        2918.69454009    1048018.92593493
 Na X[2] Nyz      -1245735.23838369    -197716.31244876
 Nx A[2] Nyz      -2707672.06669583   -2905388.37914460

@ Cubic response function value in a.u. for
@ A operator, symmetry, frequency:   YDIPLEN    3 -0.058400
@ B operator, symmetry, frequency:   YDIPLEN    3  0.058400
@ C operator, symmetry, frequency:   ZDIPLEN    1 -0.058400
@ D operator, symmetry, frequency:   ZDIPLEN    1  0.058400

@ << A; B, C, D >>  =    -2905388.37914460



   Contribution                Term         Accumulated
 ------------------------------------------------------
 Na T[4] Nb Nc Nd   191496.09723816     191496.09723816
 Na T[3] Nx Nyz    1022613.11864029    1214109.21587845
 Na X[3] Ny Nz      336832.19543234    1550941.41131078
 Nx A[3] Ny Nz      -18699.93820276    1532241.47310803
 Na X[2] Nyz      -3165131.99320995   -1632890.52010193
 Nx A[2] Nyz       -832023.50897606   -2464914.02907799

@ Cubic response function value in a.u. for
@ A operator, symmetry, frequency:   XDIPLEN    2 -0.058400
@ B operator, symmetry, frequency:   ZDIPLEN    1  0.058400
@ C operator, symmetry, frequency:   XDIPLEN    2 -0.058400
@ D operator, symmetry, frequency:   ZDIPLEN    1  0.058400

@ << A; B, C, D >>  =    -2464914.02907799



   Contribution                Term         Accumulated
 ------------------------------------------------------
 Na T[4] Nb Nc Nd    -4972.93712185      -4972.93712185
 Na T[3] Nx Nyz    -442930.80029657    -447903.73741842
 Na X[3] Ny Nz      -32430.86356591    -480334.60098433
 Nx A[3] Ny Nz        -756.34159770    -481090.94258203
 Na X[2] Nyz       2828584.69295471    2347493.75037268
 Nx A[2] Nyz       1460769.16573266    3808262.91610534

@ Cubic response function value in a.u. for
@ A operator, symmetry, frequency:   YDIPLEN    3 -0.058400
@ B operator, symmetry, frequency:   ZDIPLEN    1  0.058400
@ C operator, symmetry, frequency:   YDIPLEN    3 -0.058400
@ D operator, symmetry, frequency:   ZDIPLEN    1  0.058400

@ << A; B, C, D >>  =     3808262.91610534



   Contribution                Term         Accumulated
 ------------------------------------------------------
 Na T[4] Nb Nc Nd   128433.04862427     128433.04862427
 Na T[3] Nx Nyz    -628432.49595995    -499999.44733568
 Na X[3] Ny Nz      146914.92739664    -353084.51993905
 Nx A[3] Ny Nz      179948.97914575    -173135.54079330
 Na X[2] Nyz        -15483.84849222    -188619.38928552
 Nx A[2] Nyz      -2275608.97693445   -2464228.36621996

@ Cubic response function value in a.u. for
@ A operator, symmetry, frequency:   ZDIPLEN    1 -0.058400
@ B operator, symmetry, frequency:   XDIPLEN    2  0.058400
@ C operator, symmetry, frequency:   ZDIPLEN    1 -0.058400
@ D operator, symmetry, frequency:   XDIPLEN    2  0.058400

@ << A; B, C, D >>  =    -2464228.36621996



   Contribution                Term         Accumulated
 ------------------------------------------------------
 Na T[4] Nb Nc Nd 20876519.33138499   20876519.33138499
 Na T[3] Nx Nyz -635336205.33276987 -614459686.00138485
 Na X[3] Ny Nz    83906140.52835673 -530553545.47302818
 Nx A[3] Ny Nz    27968713.50945218 -502584831.96357596
 Na X[2] Nyz      33081484.01032393 -469503347.95325202
 Nx A[2] Nyz      31605420.90051579 -437897927.05273622

@ Cubic response function value in a.u. for
@ A operator, symmetry, frequency:   XDIPLEN    2 -0.058400
@ B operator, symmetry, frequency:   XDIPLEN    2  0.058400
@ C operator, symmetry, frequency:   XDIPLEN    2 -0.058400
@ D operator, symmetry, frequency:   XDIPLEN    2  0.058400

@ << A; B, C, D >>  =  -437897927.05273622



   Contribution                Term         Accumulated
 ------------------------------------------------------
 Na T[4] Nb Nc Nd   709737.71168252     709737.71168252
 Na T[3] Nx Nyz   16596152.24951719   17305889.96119972
 Na X[3] Ny Nz     1252462.43720394   18558352.39840366
 Nx A[3] Ny Nz     -479718.97385901   18078633.42454464
 Na X[2] Nyz      -4895542.26669743   13183091.15784721
 Nx A[2] Nyz    -259304258.18265730 -246121167.02481008

@ Cubic response function value in a.u. for
@ A operator, symmetry, frequency:   YDIPLEN    3 -0.058400
@ B operator, symmetry, frequency:   YDIPLEN    3  0.058400
@ C operator, symmetry, frequency:   XDIPLEN    2 -0.058400
@ D operator, symmetry, frequency:   XDIPLEN    2  0.058400

@ << A; B, C, D >>  =  -246121167.02481008



   Contribution                Term         Accumulated
 ------------------------------------------------------
 Na T[4] Nb Nc Nd    10758.00279037      10758.00279037
 Na T[3] Nx Nyz    -251823.88676824    -241065.88397788
 Na X[3] Ny Nz     -204681.87063659    -445747.75461447
 Nx A[3] Ny Nz      -23303.27415153    -469051.02876600
 Na X[2] Nyz      16507925.66700689   16038874.63824089
 Nx A[2] Nyz       6904145.04124276   22943019.67948366

@ Cubic response function value in a.u. for
@ A operator, symmetry, frequency:   YDIPLEN    3 -0.058400
@ B operator, symmetry, frequency:   XDIPLEN    2  0.058400
@ C operator, symmetry, frequency:   YDIPLEN    3 -0.058400
@ D operator, symmetry, frequency:   XDIPLEN    2  0.058400

@ << A; B, C, D >>  =    22943019.67948366



   Contribution                Term         Accumulated
 ------------------------------------------------------
 Na T[4] Nb Nc Nd    -9936.56299666      -9936.56299666
 Na T[3] Nx Nyz    -680205.29632424    -690141.85932090
 Na X[3] Ny Nz      -13846.73430045    -703988.59362135
 Nx A[3] Ny Nz      -14669.52435775    -718658.11797910
 Na X[2] Nyz       1567041.43020744     848383.31222834
 Nx A[2] Nyz       2958455.29557901    3806838.60780735

@ Cubic response function value in a.u. for
@ A operator, symmetry, frequency:   ZDIPLEN    1 -0.058400
@ B operator, symmetry, frequency:   YDIPLEN    3  0.058400
@ C operator, symmetry, frequency:   ZDIPLEN    1 -0.058400
@ D operator, symmetry, frequency:   YDIPLEN    3  0.058400

@ << A; B, C, D >>  =     3806838.60780735



   Contribution                Term         Accumulated
 ------------------------------------------------------
 Na T[4] Nb Nc Nd   -22592.53520773     -22592.53520773
 Na T[3] Nx Nyz    1375043.96949075    1352451.43428302
 Na X[3] Ny Nz     -119950.29232512    1232501.14195790
 Nx A[3] Ny Nz      -84907.44683571    1147593.69512220
 Na X[2] Nyz       6462322.73903857    7609916.43416076
 Nx A[2] Nyz      15329768.15248972   22939684.58665048

@ Cubic response function value in a.u. for
@ A operator, symmetry, frequency:   XDIPLEN    2 -0.058400
@ B operator, symmetry, frequency:   YDIPLEN    3  0.058400
@ C operator, symmetry, frequency:   XDIPLEN    2 -0.058400
@ D operator, symmetry, frequency:   YDIPLEN    3  0.058400

@ << A; B, C, D >>  =    22939684.58665048



   Contribution                Term         Accumulated
 ------------------------------------------------------
 Na T[4] Nb Nc Nd   142812.86763798     142812.86763798
 Na T[3] Nx Nyz   -1400417.71167343   -1257604.84403545
 Na X[3] Ny Nz     -139999.96425760   -1397604.80829306
 Nx A[3] Ny Nz      -46666.65475253   -1444271.46304559
 Na X[2] Nyz      -1198977.51405663   -2643248.97710222
 Nx A[2] Nyz      -1200355.16227692   -3843604.13937914

@ Cubic response function value in a.u. for
@ A operator, symmetry, frequency:   YDIPLEN    3 -0.058400
@ B operator, symmetry, frequency:   YDIPLEN    3  0.058400
@ C operator, symmetry, frequency:   YDIPLEN    3 -0.058400
@ D operator, symmetry, frequency:   YDIPLEN    3  0.058400

@ << A; B, C, D >>  =    -3843604.13937914



  Summary of gamma values for a set of frequencies
 -------------------------------------------------

@ B-freq:  0.058400
@ C-freq: -0.058400
@ D-freq:  0.058400

@ gamma(X;X,X,X)  437897927.0527
@ gamma(X;X,Y,Y)  246121167.0248
@ gamma(X;Y,Y,X)  246121167.0248
@ gamma(X;Y,X,Y)  -22939684.5867
@ gamma(X;X,Z,Z)  -18544507.8854
@ gamma(X;Z,Z,X)  -18544507.8854
@ gamma(X;Z,X,Z)    2464914.0291
@ gamma(Y;Y,X,X)  246121167.0248
@ gamma(Y;X,X,Y)  246121167.0248
@ gamma(Y;X,Y,X)  -22943019.6795
@ gamma(Y;Y,Y,Y)    3843604.1394
@ gamma(Y;Y,Z,Z)    2905388.3791
@ gamma(Y;Z,Z,Y)    2905388.3791
@ gamma(Y;Z,Y,Z)   -3808262.9161
@ gamma(Z;Z,X,X)  -18544507.8854
@ gamma(Z;X,X,Z)  -18544507.8854
@ gamma(Z;X,Z,X)    2464228.3662
@ gamma(Z;Z,Y,Y)    2905388.3791
@ gamma(Z;Y,Y,Z)    2905388.3791
@ gamma(Z;Y,Z,Y)   -3806838.6078
@ gamma(Z;Z,Z,Z)     361633.7568

@ Averaged gamma parallel to the applied field is 146644601.435082

  Total CPU  time used in RESPONSE:   6 hours 59 minutes 10 seconds
  Total wall time used in RESPONSE:   6 hours 59 minutes 14 seconds


                   .-------------------------------------------.
                   | End of Dynamic Property Section (RESPONS) |
                   `-------------------------------------------'

  Total CPU  time used in DALTON:   8 hours 42 minutes 41 seconds
  Total wall time used in DALTON:   8 hours 42 minutes 47 seconds

 
     Date and time (Linux)  : Tue Jan 21 17:43:09 2020
     Host name              : Lab2-333-NPs                            
