

     ************************************************************************
     *************** Dalton - An Electronic Structure Program ***************
     ************************************************************************

    This is output from DALTON release Dalton2018.1 (2019)
         ( Web site: http://daltonprogram.org )

   ----------------------------------------------------------------------------

    NOTE:
     
    Dalton is an experimental code for the evaluation of molecular
    properties using (MC)SCF, DFT, CI, and CC wave functions.
    The authors accept no responsibility for the performance of
    the code or for the correctness of the results.
     
    The code (in whole or part) is provided under a licence and
    is not to be reproduced for further distribution without
    the written permission of the authors or their representatives.
     
    See the home page "http://daltonprogram.org" for further information.
     
    If results obtained with this code are published,
    the appropriate citations would be both of:
     
       K. Aidas, C. Angeli, K. L. Bak, V. Bakken, R. Bast,
       L. Boman, O. Christiansen, R. Cimiraglia, S. Coriani,
       P. Dahle, E. K. Dalskov, U. Ekstroem,
       T. Enevoldsen, J. J. Eriksen, P. Ettenhuber, B. Fernandez,
       L. Ferrighi, H. Fliegl, L. Frediani, K. Hald, A. Halkier,
       C. Haettig, H. Heiberg, T. Helgaker, A. C. Hennum,
       H. Hettema, E. Hjertenaes, S. Hoest, I.-M. Hoeyvik,
       M. F. Iozzi, B. Jansik, H. J. Aa. Jensen, D. Jonsson,
       P. Joergensen, J. Kauczor, S. Kirpekar,
       T. Kjaergaard, W. Klopper, S. Knecht, R. Kobayashi, H. Koch,
       J. Kongsted, A. Krapp, K. Kristensen, A. Ligabue,
       O. B. Lutnaes, J. I. Melo, K. V. Mikkelsen, R. H. Myhre,
       C. Neiss, C. B. Nielsen, P. Norman, J. Olsen,
       J. M. H. Olsen, A. Osted, M. J. Packer, F. Pawlowski,
       T. B. Pedersen, P. F. Provasi, S. Reine, Z. Rinkevicius,
       T. A. Ruden, K. Ruud, V. Rybkin, P. Salek, C. C. M. Samson,
       A. Sanchez de Meras, T. Saue, S. P. A. Sauer,
       B. Schimmelpfennig, K. Sneskov, A. H. Steindal,
       K. O. Sylvester-Hvid, P. R. Taylor, A. M. Teale,
       E. I. Tellgren, D. P. Tew, A. J. Thorvaldsen, L. Thoegersen,
       O. Vahtras, M. A. Watson, D. J. D. Wilson, M. Ziolkowski
       and H. Agren,
       "The Dalton quantum chemistry program system",
       WIREs Comput. Mol. Sci. 2014, 4:269–284 (doi: 10.1002/wcms.1172)
     
    and
     
       Dalton, a molecular electronic structure program,
       Release Dalton2018.1 (2019), see http://daltonprogram.org
   ----------------------------------------------------------------------------

    Authors in alphabetical order (major contribution(s) in parenthesis):

  Kestutis Aidas,           Vilnius University,           Lithuania   (QM/MM)
  Celestino Angeli,         University of Ferrara,        Italy       (NEVPT2)
  Keld L. Bak,              UNI-C,                        Denmark     (AOSOPPA, non-adiabatic coupling, magnetic properties)
  Vebjoern Bakken,          University of Oslo,           Norway      (DALTON; geometry optimizer, symmetry detection)
  Radovan Bast,             UiT The Arctic U. of Norway,  Norway      (DALTON installation and execution frameworks)
  Pablo Baudin,             University of Valencia,       Spain       (Cholesky excitation energies)
  Linus Boman,              NTNU,                         Norway      (Cholesky decomposition and subsystems)
  Ove Christiansen,         Aarhus University,            Denmark     (CC module)
  Renzo Cimiraglia,         University of Ferrara,        Italy       (NEVPT2)
  Sonia Coriani,            Technical Univ. of Denmark,   Denmark     (CC module, MCD in RESPONS)
  Janusz Cukras,            University of Trieste,        Italy       (MChD in RESPONS)
  Paal Dahle,               University of Oslo,           Norway      (Parallelization)
  Erik K. Dalskov,          UNI-C,                        Denmark     (SOPPA)
  Thomas Enevoldsen,        Univ. of Southern Denmark,    Denmark     (SOPPA)
  Janus J. Eriksen,         Aarhus University,            Denmark     (Polarizable embedding model, TDA)
  Rasmus Faber,             University of Copenhagen,     Denmark     (Vib.avg. NMR with SOPPA, parallel AO-SOPPA)
  Tobias Fahleson,          KTH Stockholm,                Sweden      (Damped cubic response)
  Berta Fernandez,          U. of Santiago de Compostela, Spain       (doublet spin, ESR in RESPONS)
  Lara Ferrighi,            Aarhus University,            Denmark     (PCM Cubic response)
  Heike Fliegl,             University of Oslo,           Norway      (CCSD(R12))
  Luca Frediani,            UiT The Arctic U. of Norway,  Norway      (PCM)
  Bin Gao,                  UiT The Arctic U. of Norway,  Norway      (Gen1Int library)
  Christof Haettig,         Ruhr-University Bochum,       Germany     (CC module)
  Kasper Hald,              Aarhus University,            Denmark     (CC module)
  Asger Halkier,            Aarhus University,            Denmark     (CC module)
  Frederik Beyer Hansen,    University of Copenhagen,     Denmark     (Parallel AO-SOPPA)
  Erik D. Hedegaard,        Univ. of Southern Denmark,    Denmark     (Polarizable embedding model, QM/MM)
  Hanne Heiberg,            University of Oslo,           Norway      (geometry analysis, selected one-electron integrals)
  Trygve Helgaker,          University of Oslo,           Norway      (DALTON; ABACUS, ERI, DFT modules, London, and much more)
  Alf Christian Hennum,     University of Oslo,           Norway      (Parity violation)
  Hinne Hettema,            University of Auckland,       New Zealand (quadratic response in RESPONS; SIRIUS supersymmetry)
  Eirik Hjertenaes,         NTNU,                         Norway      (Cholesky decomposition)
  Pi A. B. Haase,           University of Copenhagen,     Denmark     (Triplet AO-SOPPA)
  Maria Francesca Iozzi,    University of Oslo,           Norway      (RPA)
  Christoph Jacob           TU Braunschweig               Germany     (Frozen density embedding model)
  Brano Jansik              Technical Univ. of Ostrava    Czech Rep.  (DFT cubic response)
  Hans Joergen Aa. Jensen,  Univ. of Southern Denmark,    Denmark     (DALTON; SIRIUS, RESPONS, ABACUS modules, London, and much more)
  Dan Jonsson,              UiT The Arctic U. of Norway,  Norway      (cubic response in RESPONS module)
  Poul Joergensen,          Aarhus University,            Denmark     (RESPONS, ABACUS, and CC modules)
  Maciej Kaminski,          University of Warsaw,         Poland      (CPPh in RESPONS)
  Joanna Kauczor,           Linkoeping University,        Sweden      (Complex polarization propagator (CPP) module)
  Sheela Kirpekar,          Univ. of Southern Denmark,    Denmark     (Mass-velocity & Darwin integrals)
  Wim Klopper,              KIT Karlsruhe,                Germany     (R12 code in CC, SIRIUS, and ABACUS modules)
  Stefan Knecht,            ETH Zurich,                   Switzerland (Parallel CI and MCSCF)
  Rika Kobayashi,           Australian National Univ.,    Australia   (DIIS in CC, London in MCSCF)
  Henrik Koch,              NTNU,                         Norway      (CC module, Cholesky decomposition)
  Jacob Kongsted,           Univ. of Southern Denmark,    Denmark     (Polarizable embedding model, QM/MM)
  Andrea Ligabue,           University of Modena,         Italy       (CTOCD, AOSOPPA)
  Nanna H. List             Univ. of Southern Denmark,    Denmark     (Polarizable embedding model)
  Ola B. Lutnaes,           University of Oslo,           Norway      (DFT Hessian)
  Juan I. Melo,             University of Buenos Aires,   Argentina   (LRESC, Relativistic Effects on NMR Shieldings)
  Kurt V. Mikkelsen,        University of Copenhagen,     Denmark     (MC-SCRF and QM/MM)
  Rolf H. Myhre,            NTNU,                         Norway      (Subsystems and CC3)
  Christian Neiss,          Univ. Erlangen-Nuernberg,     Germany     (CCSD(R12))
  Christian B. Nielsen,     University of Copenhagen,     Denmark     (QM/MM)
  Patrick Norman,           KTH Stockholm,                Sweden      (Cubic response and complex frequency response in RESPONS)
  Jeppe Olsen,              Aarhus University,            Denmark     (SIRIUS CI/density modules)
  Jogvan Magnus H. Olsen,   Univ. of Southern Denmark,    Denmark     (Polarizable embedding model, QM/MM)
  Anders Osted,             Copenhagen University,        Denmark     (QM/MM)
  Martin J. Packer,         University of Sheffield,      UK          (SOPPA)
  Filip Pawlowski,          Kazimierz Wielki University,  Poland      (CC3)
  Morten N. Pedersen,       Univ. of Southern Denmark,    Denmark     (Polarizable embedding model)
  Thomas B. Pedersen,       University of Oslo,           Norway      (Cholesky decomposition)
  Patricio F. Provasi,      University of Northeastern,   Argentina   (Analysis of coupling constants in localized orbitals)
  Zilvinas Rinkevicius,     KTH Stockholm,                Sweden      (open-shell DFT, ESR)
  Elias Rudberg,            KTH Stockholm,                Sweden      (DFT grid and basis info)
  Torgeir A. Ruden,         University of Oslo,           Norway      (Numerical derivatives in ABACUS)
  Kenneth Ruud,             UiT The Arctic U. of Norway,  Norway      (DALTON; ABACUS magnetic properties and much more)
  Pawel Salek,              KTH Stockholm,                Sweden      (DALTON; DFT code)
  Claire C. M. Samson       University of Karlsruhe       Germany     (Boys localization, r12 integrals in ERI)
  Alfredo Sanchez de Meras, University of Valencia,       Spain       (CC module, Cholesky decomposition)
  Trond Saue,               Paul Sabatier University,     France      (direct Fock matrix construction)
  Stephan P. A. Sauer,      University of Copenhagen,     Denmark     (SOPPA(CCSD), SOPPA prop., AOSOPPA, vibrational g-factors)
  Andre S. P. Gomes,        CNRS/Universite de Lille,     France      (Frozen density embedding model)
  Bernd Schimmelpfennig,    Forschungszentrum Karlsruhe,  Germany     (AMFI module)
  Kristian Sneskov,         Aarhus University,            Denmark     (Polarizable embedding model, QM/MM)
  Arnfinn H. Steindal,      UiT The Arctic U. of Norway,  Norway      (parallel QM/MM, Polarizable embedding model)
  Casper Steinmann,         Univ. of Southern Denmark,    Denmark     (QFIT, Polarizable embedding model)
  K. O. Sylvester-Hvid,     University of Copenhagen,     Denmark     (MC-SCRF)
  Peter R. Taylor,          VLSCI/Univ. of Melbourne,     Australia   (Symmetry handling ABACUS, integral transformation)
  Andrew M. Teale,          University of Nottingham,     England     (DFT-AC, DFT-D)
  David P. Tew,             University of Bristol,        England     (CCSD(R12))
  Olav Vahtras,             KTH Stockholm,                Sweden      (triplet response, spin-orbit, ESR, TDDFT, open-shell DFT)
  Lucas Visscher,           Vrije Universiteit Amsterdam, Netherlands (Frozen density embedding model)
  David J. Wilson,          La Trobe University,          Australia   (DFT Hessian and DFT magnetizabilities)
  Hans Agren,               KTH Stockholm,                Sweden      (SIRIUS module, RESPONS, MC-SCRF solvation model)
 --------------------------------------------------------------------------------

     Date and time (Linux)  : Mon Jan 20 13:20:46 2020
     Host name              : Lab2-333-NPs                            

 * Work memory size             :  1024000000 =  7.629 gigabytes.

 * Directories for basis set searches:
   1) /home/lab333/dalton/build_2018_atlas
   2) /home/lab333/dalton/build_2018_atlas/basis


Compilation information
-----------------------

 Who compiled             | lab333
 Host                     | Lab2-333-NPs
 System                   | Linux-4.4.0-43-Microsoft
 CMake generator          | Unix Makefiles
 Processor                | x86_64
 64-bit integers          | OFF
 MPI                      | OFF
 Fortran compiler         | /usr/bin/gfortran
 Fortran compiler version | GNU Fortran (Ubuntu 7.3.0-27ubuntu1~18.04) 7.3.0
 C compiler               | /usr/bin/gcc
 C compiler version       | gcc (Ubuntu 7.3.0-27ubuntu1~18.04) 7.3.0
 C++ compiler             | /usr/bin/g++
 C++ compiler version     | g++ (Ubuntu 7.3.0-27ubuntu1~18.04) 7.3.0
 BLAS                     | /usr/lib/x86_64-linux-gnu/libf77blas.so;/usr/lib/x
                          | 86_64-linux-gnu/libcblas.so;/usr/lib/x86_64-linux-
                          | gnu/libatlas.so
 LAPACK                   | /usr/lib/x86_64-linux-gnu/libatlas.so;/usr/lib/x86
                          | _64-linux-gnu/atlas/liblapack.so
 Static linking           | OFF
 Last Git revision        | da625bf48c74028e805616daee31bc5d76b3a20d
 Git branch               | (HEAD detached at Dalton2018.1)
 Configuration time       | 2019-01-18 10:20:51.437510


   Content of the .dal input file
 ----------------------------------

**DALTON INPUT
.RUN RESPONSE
.DIRECT
**WAVE FUNCTIONS
.HF
.MP2
.MCSCF
*CONFIGURATION INPUT
.SPIN MULTIPLICITY
3
.SYMMETRY
1
.INACTIVE ORBITALS
15 10 2 0
.CAS SPACE
1 1 2 3
.ELECTRONS
10
*ORBITAL INPUT
.MOSTART
.HUCKEL
*OPTIMIZATION
.DETERMINANTS
.STATE
2
*CI VECTOR
.PLUS COMBINATIONS
**RESPONSE
*CUBIC
.DIPLEN
.BFREQ
1
0.0584
.CFREQ
1
-0.0584
.DFREQ
1
0.0584
**END OF DALTON INPUT


   Content of the .mol file
 ----------------------------

BASIS
aug-cc-pCVDZ
 nitrobenzene
 Generated by the Dalton Input File Plugin for Avogadro
Atomtypes=4 Angstrom Generators=2 X Y
Charge=6.0 Atoms=4
C        0.0000000000            0.0000000000           -0.0265759623
C       -1.2190534920            0.0000000000           -0.6979856948
C       -1.2105095870            0.0000000000           -2.0897394457
C        0.0000000000            0.0000000000           -2.7841484631
Charge=7.0 Atoms=1
N        0.0000000000            0.0000000000            1.4549291696
Charge=8.0 Atoms=1
O       0.5165807333051649            0.0            2.565419687282958
Charge=1.0 Atoms=3
H       -2.1410602955            0.0000000000           -0.1327964319
H       -2.1492827751            0.0000000000           -2.6311811056
H        0.0000000000            0.0000000000           -3.8683953478


       *******************************************************************
       *********** Output from DALTON general input processing ***********
       *******************************************************************

 --------------------------------------------------------------------------------
   Overall default print level:    0
   Print level for DALTON.STAT:    1

    AO-direct calculation (in sections where implemented)
    HERMIT 1- and 2-electron integral sections will be executed
    "Old" integral transformation used (limited to max 255 basis functions)
    Wave function sections will be executed (SIRIUS module)
    Dynamic molecular response properties section will be executed (RESPONSE module)
 --------------------------------------------------------------------------------


   ****************************************************************************
   *************** Output of molecule and basis set information ***************
   ****************************************************************************


    The two title cards from your ".mol" input:
    ------------------------------------------------------------------------
 1:  nitrobenzene                                                           
 2:  Generated by the Dalton Input File Plugin for Avogadro                 
    ------------------------------------------------------------------------

  Coordinates are entered in Angstrom and converted to atomic units.
          - Conversion factor : 1 bohr = 0.52917721 A

  Atomic type no.    1
  --------------------
  Nuclear charge:   6.00000
  Number of symmetry independent centers:    4
  Number of basis sets to read;    2
  Basis set file used for this atomic type with Z =   6 :
     "/home/lab333/dalton/build_2018_atlas/basis/aug-cc-pCVDZ"

  Atomic type no.    2
  --------------------
  Nuclear charge:   7.00000
  Number of symmetry independent centers:    1
  Number of basis sets to read;    2
  Basis set file used for this atomic type with Z =   7 :
     "/home/lab333/dalton/build_2018_atlas/basis/aug-cc-pCVDZ"

  Atomic type no.    3
  --------------------
  Nuclear charge:   8.00000
  Number of symmetry independent centers:    1
  Number of basis sets to read;    2
  Basis set file used for this atomic type with Z =   8 :
     "/home/lab333/dalton/build_2018_atlas/basis/aug-cc-pCVDZ"

  Atomic type no.    4
  --------------------
  Nuclear charge:   1.00000
  Number of symmetry independent centers:    3
  Number of basis sets to read;    2
  Basis set file used for this atomic type with Z =   1 :
     "/home/lab333/dalton/build_2018_atlas/basis/aug-cc-pCVDZ"


                         SYMGRP: Point group information
                         -------------------------------

@    Point group: C2v

@  * The irrep name for each symmetry:    1: A1     2: B1     3: B2     4: A2 

   * The point group was generated by:

      Reflection in the yz-plane
      Reflection in the xz-plane

   * Group multiplication table

        |  E   C2z  Oxz  Oyz
   -----+--------------------
     E  |  E   C2z  Oxz  Oyz
    C2z | C2z   E   Oyz  Oxz
    Oxz | Oxz  Oyz   E   C2z
    Oyz | Oyz  Oxz  C2z   E 

   * Character table

        |  E   C2z  Oxz  Oyz
   -----+--------------------
    A1  |   1    1    1    1
    B1  |   1   -1    1   -1
    B2  |   1   -1   -1    1
    A2  |   1    1   -1   -1

   * Direct product table

        | A1   B1   B2   A2 
   -----+--------------------
    A1  | A1   B1   B2   A2 
    B1  | B1   A1   A2   B2 
    B2  | B2   A2   A1   B1 
    A2  | A2   B2   B1   A1 


                                 Isotopic Masses
                                 ---------------

                           C          12.000000
                           C   _1     12.000000
                           C   _2     12.000000
                           C   _1     12.000000
                           C   _2     12.000000
                           C          12.000000
                           N          14.003074
                           O   _1     15.994915
                           O   _2     15.994915
                           H   _1      1.007825
                           H   _2      1.007825
                           H   _1      1.007825
                           H   _2      1.007825
                           H           1.007825

                       Total mass:   123.032029 amu
                       Natural abundance:  92.716 %

 Center-of-mass coordinates (a.u.):    0.000000    0.000000   -0.117703


  Atoms and basis sets
  --------------------

  Number of atom types :    4
  Total number of atoms:   14

  Basis set used is "aug-cc-pCVDZ" from the basis set library.

  label    atoms   charge   prim   cont     basis
  ----------------------------------------------------------------------
  C           6    6.0000    39    27      [11s6p2d|5s4p2d]                                   
  N           1    7.0000    39    27      [11s6p2d|5s4p2d]                                   
  O           2    8.0000    39    27      [11s6p2d|5s4p2d]                                   
  H           5    1.0000    11     9      [5s2p|3s2p]                                        
  ----------------------------------------------------------------------
  total:     14   64.0000   406   288
  ----------------------------------------------------------------------
  Spherical harmonic basis used.

  Threshold for neglecting AO integrals:  1.00D-12


  Symmetry Coordinates
  --------------------

  Number of coordinates in each symmetry:    14   14    9    5


   Interatomic separations (in Angstrom):
   --------------------------------------

            C           C   _1      C   _2      C   _1      C   _2      C     
            ------      ------      ------      ------      ------      ------
 C     :    0.000000
 C   _1:    1.391719    0.000000
 C   _2:    1.391719    2.438107    0.000000
 C   _1:    2.392065    1.391780    2.799956    0.000000
 C   _2:    2.392065    2.799956    1.391780    2.421019    0.000000
 C     :    2.757573    2.416230    2.416230    1.395542    1.395542    0.000000
 N     :    1.481505    2.474093    2.474093    3.745665    3.745665    4.239078
 O   _1:    2.642971    3.696247    3.338156    4.965214    4.706596    5.374452
 O   _2:    2.642971    3.338156    3.696247    4.706596    4.965214    5.374452
 H   _1:    2.143694    1.081451    3.407316    2.166922    3.881063    3.407904
 H   _2:    2.143694    3.407316    1.081451    3.881063    2.166922    3.407904
 H   _1:    3.376890    2.145360    3.883675    1.083722    3.403140    2.154719
 H   _2:    3.376890    3.883675    2.145360    3.403140    1.083722    2.154719
 H     :    3.841819    3.396703    3.396703    2.151500    2.151500    1.084247

            N           O   _1      O   _2      H   _1      H   _2      H   _1
            ------      ------      ------      ------      ------      ------
 N     :    0.000000
 O   _1:    1.224763    0.000000
 O   _2:    1.224763    1.033161    0.000000
 H   _1:    2.665523    3.787272    3.149493    0.000000
 H   _2:    2.665523    3.149493    3.787272    4.282121    0.000000
 H   _1:    4.616894    5.840504    5.447052    2.498398    4.964773    0.000000
 H   _2:    4.616894    5.447052    5.840504    4.964773    2.498398    4.298566
 H     :    5.323325    6.454520    6.454520    4.305675    4.305675    2.479943

            H   _2      H     
            ------      ------
 H   _2:    0.000000
 H     :    2.479943    0.000000


  Max    interatomic separation is    6.4545 Angstrom (   12.1973 Bohr)
  between atoms   14 and    8, "H     " and "O   _1".

  Min HX interatomic separation is    1.0815 Angstrom (    2.0436 Bohr)

  Min YX interatomic separation is    1.0332 Angstrom (    1.9524 Bohr)


  Bond distances (Angstrom):
  --------------------------

                  atom 1     atom 2       distance
                  ------     ------       --------
  bond distance:  C   _1     C            1.391719
  bond distance:  C   _2     C            1.391719
  bond distance:  C   _1     C   _1       1.391780
  bond distance:  C   _2     C   _2       1.391780
  bond distance:  C          C   _1       1.395542
  bond distance:  C          C   _2       1.395542
  bond distance:  N          C            1.481505
  bond distance:  O   _1     N            1.224763
  bond distance:  O   _2     N            1.224763
  bond distance:  O   _2     O   _1       1.033161
  bond distance:  H   _1     C   _1       1.081451
  bond distance:  H   _2     C   _2       1.081451
  bond distance:  H   _1     C   _1       1.083722
  bond distance:  H   _2     C   _2       1.083722
  bond distance:  H          C            1.084247


  Bond angles (degrees):
  ----------------------

                  atom 1     atom 2     atom 3         angle
                  ------     ------     ------         -----
  bond angle:     C   _1     C          C   _2       122.311
  bond angle:     C   _1     C          N            118.844
  bond angle:     C   _2     C          N            118.844
  bond angle:     C          C   _1     C   _1       118.493
  bond angle:     C          C   _1     H   _1       119.647
  bond angle:     C   _1     C   _1     H   _1       121.860
  bond angle:     C          C   _2     C   _2       118.493
  bond angle:     C          C   _2     H   _2       119.647
  bond angle:     C   _2     C   _2     H   _2       121.860
  bond angle:     C   _1     C   _1     C            120.192
  bond angle:     C   _1     C   _1     H   _1       119.623
  bond angle:     C          C   _1     H   _1       120.185
  bond angle:     C   _2     C   _2     C            120.192
  bond angle:     C   _2     C   _2     H   _2       119.623
  bond angle:     C          C   _2     H   _2       120.185
  bond angle:     C   _1     C          C   _2       120.319
  bond angle:     C   _1     C          H            119.841
  bond angle:     C   _2     C          H            119.841
  bond angle:     C          N          O   _1       155.053
  bond angle:     C          N          O   _2       155.053
  bond angle:     O   _1     N          O   _2        49.894
  bond angle:     N          O   _1     O   _2        65.053
  bond angle:     N          O   _2     O   _1        65.053




 Principal moments of inertia (u*A**2) and principal axes
 --------------------------------------------------------

   IA      97.922011          0.000000    0.000000    1.000000
   IB     478.300482          1.000000    0.000000    0.000000
   IC     576.222493          0.000000    1.000000    0.000000


 Rotational constants
 --------------------

@    The molecule is planar.

               A                   B                   C

           5161.0358           1056.6140            877.0553 MHz
            0.172154            0.035245            0.029255 cm-1


@  Nuclear repulsion energy :  418.587416897267 Hartree


  Symmetry Orbitals
  -----------------

  Number of orbitals in each symmetry:         115   91   48   34


  Symmetry  A1 ( 1)

    1     C        1s         1
    2     C        1s         2
    3     C        1s         3
    4     C        1s         4
    5     C        1s         5
    6     C        2pz        8
    7     C        2pz       11
    8     C        2pz       14
    9     C        2pz       17
   10     C        3d0       20
   11     C        3d2+      22
   12     C        3d0       25
   13     C        3d2+      27
   14     C        1s        28 +   29
   15     C        1s        30 +   31
   16     C        1s        32 +   33
   17     C        1s        34 +   35
   18     C        1s        36 +   37
   19     C        2px       38 -   39
   20     C        2pz       42 +   43
   21     C        2px       44 -   45
   22     C        2pz       48 +   49
   23     C        2px       50 -   51
   24     C        2pz       54 +   55
   25     C        2px       56 -   57
   26     C        2pz       60 +   61
   27     C        3d0       66 +   67
   28     C        3d1+      68 -   69
   29     C        3d2+      70 +   71
   30     C        3d0       76 +   77
   31     C        3d1+      78 -   79
   32     C        3d2+      80 +   81
   33     C        1s        82 +   83
   34     C        1s        84 +   85
   35     C        1s        86 +   87
   36     C        1s        88 +   89
   37     C        1s        90 +   91
   38     C        2px       92 -   93
   39     C        2pz       96 +   97
   40     C        2px       98 -   99
   41     C        2pz      102 +  103
   42     C        2px      104 -  105
   43     C        2pz      108 +  109
   44     C        2px      110 -  111
   45     C        2pz      114 +  115
   46     C        3d0      120 +  121
   47     C        3d1+     122 -  123
   48     C        3d2+     124 +  125
   49     C        3d0      130 +  131
   50     C        3d1+     132 -  133
   51     C        3d2+     134 +  135
   52     C        1s       136
   53     C        1s       137
   54     C        1s       138
   55     C        1s       139
   56     C        1s       140
   57     C        2pz      143
   58     C        2pz      146
   59     C        2pz      149
   60     C        2pz      152
   61     C        3d0      155
   62     C        3d2+     157
   63     C        3d0      160
   64     C        3d2+     162
   65     N        1s       163
   66     N        1s       164
   67     N        1s       165
   68     N        1s       166
   69     N        1s       167
   70     N        2pz      170
   71     N        2pz      173
   72     N        2pz      176
   73     N        2pz      179
   74     N        3d0      182
   75     N        3d2+     184
   76     N        3d0      187
   77     N        3d2+     189
   78     O        1s       190 +  191
   79     O        1s       192 +  193
   80     O        1s       194 +  195
   81     O        1s       196 +  197
   82     O        1s       198 +  199
   83     O        2px      200 -  201
   84     O        2pz      204 +  205
   85     O        2px      206 -  207
   86     O        2pz      210 +  211
   87     O        2px      212 -  213
   88     O        2pz      216 +  217
   89     O        2px      218 -  219
   90     O        2pz      222 +  223
   91     O        3d0      228 +  229
   92     O        3d1+     230 -  231
   93     O        3d2+     232 +  233
   94     O        3d0      238 +  239
   95     O        3d1+     240 -  241
   96     O        3d2+     242 +  243
   97     H        1s       244 +  245
   98     H        1s       246 +  247
   99     H        1s       248 +  249
  100     H        2px      250 -  251
  101     H        2pz      254 +  255
  102     H        2px      256 -  257
  103     H        2pz      260 +  261
  104     H        1s       262 +  263
  105     H        1s       264 +  265
  106     H        1s       266 +  267
  107     H        2px      268 -  269
  108     H        2pz      272 +  273
  109     H        2px      274 -  275
  110     H        2pz      278 +  279
  111     H        1s       280
  112     H        1s       281
  113     H        1s       282
  114     H        2pz      285
  115     H        2pz      288


  Symmetry  B1 ( 2)

  116     C        2px        6
  117     C        2px        9
  118     C        2px       12
  119     C        2px       15
  120     C        3d1+      21
  121     C        3d1+      26
  122     C        1s        28 -   29
  123     C        1s        30 -   31
  124     C        1s        32 -   33
  125     C        1s        34 -   35
  126     C        1s        36 -   37
  127     C        2px       38 +   39
  128     C        2pz       42 -   43
  129     C        2px       44 +   45
  130     C        2pz       48 -   49
  131     C        2px       50 +   51
  132     C        2pz       54 -   55
  133     C        2px       56 +   57
  134     C        2pz       60 -   61
  135     C        3d0       66 -   67
  136     C        3d1+      68 +   69
  137     C        3d2+      70 -   71
  138     C        3d0       76 -   77
  139     C        3d1+      78 +   79
  140     C        3d2+      80 -   81
  141     C        1s        82 -   83
  142     C        1s        84 -   85
  143     C        1s        86 -   87
  144     C        1s        88 -   89
  145     C        1s        90 -   91
  146     C        2px       92 +   93
  147     C        2pz       96 -   97
  148     C        2px       98 +   99
  149     C        2pz      102 -  103
  150     C        2px      104 +  105
  151     C        2pz      108 -  109
  152     C        2px      110 +  111
  153     C        2pz      114 -  115
  154     C        3d0      120 -  121
  155     C        3d1+     122 +  123
  156     C        3d2+     124 -  125
  157     C        3d0      130 -  131
  158     C        3d1+     132 +  133
  159     C        3d2+     134 -  135
  160     C        2px      141
  161     C        2px      144
  162     C        2px      147
  163     C        2px      150
  164     C        3d1+     156
  165     C        3d1+     161
  166     N        2px      168
  167     N        2px      171
  168     N        2px      174
  169     N        2px      177
  170     N        3d1+     183
  171     N        3d1+     188
  172     O        1s       190 -  191
  173     O        1s       192 -  193
  174     O        1s       194 -  195
  175     O        1s       196 -  197
  176     O        1s       198 -  199
  177     O        2px      200 +  201
  178     O        2pz      204 -  205
  179     O        2px      206 +  207
  180     O        2pz      210 -  211
  181     O        2px      212 +  213
  182     O        2pz      216 -  217
  183     O        2px      218 +  219
  184     O        2pz      222 -  223
  185     O        3d0      228 -  229
  186     O        3d1+     230 +  231
  187     O        3d2+     232 -  233
  188     O        3d0      238 -  239
  189     O        3d1+     240 +  241
  190     O        3d2+     242 -  243
  191     H        1s       244 -  245
  192     H        1s       246 -  247
  193     H        1s       248 -  249
  194     H        2px      250 +  251
  195     H        2pz      254 -  255
  196     H        2px      256 +  257
  197     H        2pz      260 -  261
  198     H        1s       262 -  263
  199     H        1s       264 -  265
  200     H        1s       266 -  267
  201     H        2px      268 +  269
  202     H        2pz      272 -  273
  203     H        2px      274 +  275
  204     H        2pz      278 -  279
  205     H        2px      283
  206     H        2px      286


  Symmetry  B2 ( 3)

  207     C        2py        7
  208     C        2py       10
  209     C        2py       13
  210     C        2py       16
  211     C        3d1-      19
  212     C        3d1-      24
  213     C        2py       40 +   41
  214     C        2py       46 +   47
  215     C        2py       52 +   53
  216     C        2py       58 +   59
  217     C        3d2-      62 -   63
  218     C        3d1-      64 +   65
  219     C        3d2-      72 -   73
  220     C        3d1-      74 +   75
  221     C        2py       94 +   95
  222     C        2py      100 +  101
  223     C        2py      106 +  107
  224     C        2py      112 +  113
  225     C        3d2-     116 -  117
  226     C        3d1-     118 +  119
  227     C        3d2-     126 -  127
  228     C        3d1-     128 +  129
  229     C        2py      142
  230     C        2py      145
  231     C        2py      148
  232     C        2py      151
  233     C        3d1-     154
  234     C        3d1-     159
  235     N        2py      169
  236     N        2py      172
  237     N        2py      175
  238     N        2py      178
  239     N        3d1-     181
  240     N        3d1-     186
  241     O        2py      202 +  203
  242     O        2py      208 +  209
  243     O        2py      214 +  215
  244     O        2py      220 +  221
  245     O        3d2-     224 -  225
  246     O        3d1-     226 +  227
  247     O        3d2-     234 -  235
  248     O        3d1-     236 +  237
  249     H        2py      252 +  253
  250     H        2py      258 +  259
  251     H        2py      270 +  271
  252     H        2py      276 +  277
  253     H        2py      284
  254     H        2py      287


  Symmetry  A2 ( 4)

  255     C        3d2-      18
  256     C        3d2-      23
  257     C        2py       40 -   41
  258     C        2py       46 -   47
  259     C        2py       52 -   53
  260     C        2py       58 -   59
  261     C        3d2-      62 +   63
  262     C        3d1-      64 -   65
  263     C        3d2-      72 +   73
  264     C        3d1-      74 -   75
  265     C        2py       94 -   95
  266     C        2py      100 -  101
  267     C        2py      106 -  107
  268     C        2py      112 -  113
  269     C        3d2-     116 +  117
  270     C        3d1-     118 -  119
  271     C        3d2-     126 +  127
  272     C        3d1-     128 -  129
  273     C        3d2-     153
  274     C        3d2-     158
  275     N        3d2-     180
  276     N        3d2-     185
  277     O        2py      202 -  203
  278     O        2py      208 -  209
  279     O        2py      214 -  215
  280     O        2py      220 -  221
  281     O        3d2-     224 +  225
  282     O        3d1-     226 -  227
  283     O        3d2-     234 +  235
  284     O        3d1-     236 -  237
  285     H        2py      252 -  253
  286     H        2py      258 -  259
  287     H        2py      270 -  271
  288     H        2py      276 -  277

  Symmetries of electric field:  B1 (2)  B2 (3)  A1 (1)

  Symmetries of magnetic field:  B2 (3)  B1 (2)  A2 (4)


                     .---------------------------------------.
                     | Starting in Integral Section (HERMIT) |
                     `---------------------------------------'



 ***************************************************************************************
 ****************** Output from **INTEGRALS input processing (HERMIT) ******************
 ***************************************************************************************


 - Using defaults, no **INTEGRALS input found

 Default print level:        1

 Calculation of one-electron Hamiltonian integrals.

 Center of mass  (bohr):      0.000000000000      0.000000000000     -0.117703172414
 Operator center (bohr):      0.000000000000      0.000000000000      0.000000000000
 Gauge origin    (bohr):      0.000000000000      0.000000000000      0.000000000000
 Dipole origin   (bohr):      0.000000000000      0.000000000000      0.000000000000


     ************************************************************************
     ************************** Output from HERINT **************************
     ************************************************************************



                      Nuclear contribution to dipole moments
                      --------------------------------------

                 au               Debye          C m (/(10**-30)

      z    -16.02899616       -40.74164179      -135.89948882


  Total CPU  time used in HERMIT:   0.39 seconds
  Total wall time used in HERMIT:   0.39 seconds


                        .----------------------------------.
                        | End of Integral Section (HERMIT) |
                        `----------------------------------'



                   .--------------------------------------------.
                   | Starting in Wave Function Section (SIRIUS) |
                   `--------------------------------------------'


 *** Output from Huckel module :

     Using EWMO model:          F
     Using EHT  model:          T
     Number of Huckel orbitals each symmetry:   24   17    6    3

 Huckel EHT eigenvalues for symmetry :  1
          -20.741281     -15.706231     -11.414839     -11.394398     -11.376674
          -11.362577      -1.994265      -1.578830      -1.279594      -1.023761
           -0.836760      -0.745634      -0.637209      -0.595893      -0.544813
           -0.439740      -0.314175      -0.237667      -0.219902      -0.213404
           -0.205728      -0.178502      -0.166811      -0.160386

 Huckel EHT eigenvalues for symmetry :  2
          -20.711563     -11.396450     -11.377841      -1.235283      -1.121365
           -0.881241      -0.569805      -0.533512      -0.479505      -0.416426
           -0.336290      -0.310587      -0.213869      -0.202820      -0.176271
           -0.165474      -0.163324

 Huckel EHT eigenvalues for symmetry :  3
           -0.860400      -0.702053      -0.489608      -0.394519      -0.281623
           -0.236533

 Huckel EHT eigenvalues for symmetry :  4
           -0.468657      -0.460148      -0.288960

 **********************************************************************
 *SIRIUS* a direct, restricted step, second order MCSCF program       *
 **********************************************************************

 
     Date and time (Linux)  : Mon Jan 20 13:20:47 2020
     Host name              : Lab2-333-NPs                            

 Title lines from ".mol" input file:
      nitrobenzene                                                           
      Generated by the Dalton Input File Plugin for Avogadro                 

 Print level on unit LUPRI =   2 is   0
 Print level on unit LUW4  =   2 is   5

@    MC-SCF optimization.

@    Multi-configurational response calculation.
@              Type: complete active space calculation (CAS).

@    This is a combination run starting with
@              a restricted, closed shell Hartree-Fock calculation
@              an MP2 calculation

 Fock matrices are calculated directly without use of integrals on disk.

 Initial molecular orbitals are obtained according to
 ".MOSTART EHT   " input option

     Wave function specification
     ============================
@    Wave function type        --- MC-SCF ---
@    Number of closed shell electrons          54
@    Number of electrons in active shells      10
@    Total charge of the molecule               0

@    Spin multiplicity and 2 M_S                3         2
@    Total number of symmetries                 4 (point group: C2v)
@    Reference state symmetry                   1 (irrep name : A1 )

     Orbital specifications
     ======================
@    Abelian symmetry species          All |    1    2    3    4
@                                          |  A1   B1   B2   A2 
                                       --- |  ---  ---  ---  ---
@    Inactive orbitals                  27 |   15   10    2    0
@    Active orbitals                     7 |    1    1    2    3
@    Secondary orbitals                254 |   99   80   44   31
@    Total number of orbitals          288 |  115   91   48   34
@    Number of basis functions         288 |  115   91   48   34

      ** Automatic occupation of RHF orbitals **

      -- Initial occupation of symmetries is determined from extended Huckel guess.           
      -- Initial occupation of symmetries is :
@    Occupied SCF orbitals              32 |   16   10    4    2

     Optimization information
     ========================
@    Number of determinants                  56
@    Number of orbital rotations           2762
     ------------------------------------------
@    Total number of variables             2818

     Maximum number of macro iterations      40
     Maximum number of micro iterations     960
     Threshold for MCSCF gradient      1.00D-05
     Number of initial trial vectors          2
     Number of initial CI iterations          3
     Number of simultaneous trial vectors     2

@    This calculation converges to state no.   2 for the specified symmetry and spin species.

     Maximum number of NEO/NR iterations  24

    INFORMATION: Switched to "new" integral transformation (from 1988 ;-) )
    because more than 255 basis functions.


 ***********************************************
 ***** DIIS acceleration of SCF iterations *****
 ***********************************************

 C1-DIIS algorithm; max error vectors =    8

 Automatic occupation of symmetries with  64 electrons.

 Iter     Total energy    Error norm  Delta(E)    SCF occupation
 -----------------------------------------------------------------------------
   1  Screening settings (-IFTHRS, JTDIIS, DIFDEN, times)   -8    1    T  2.60D+01  2.59D+01
@  1  -431.990713289       6.44D+00  -4.32D+02    16  10   4   2
      Virial theorem: -V/T =      1.997285
@    MULPOP   C       0.50; C   _1  0.09; C   _2  0.09; C   _1  0.26; C   _2  0.26; C       0.19; N       0.00; O   _1 -0.24; O   _2 -0.24; H   _1 -0.19; 
@             H   _2 -0.19; H   _1 -0.18; H   _2 -0.18; H      -0.18; 
   1  Level shift: doubly occupied orbital energies shifted by -2.00D-01
 -----------------------------------------------------------------------------
   2  Screening settings (-IFTHRS, JTDIIS, DIFDEN, times)   -8    2    T  2.60D+01  2.60D+01
@  2  -433.647398707       1.43D+00  -1.66D+00    16  10   4   2
      Virial theorem: -V/T =      1.991566
@    MULPOP   C       1.64; C   _1  0.04; C   _2  0.04; C   _1  0.42; C   _2  0.42; C       0.38; N       0.25; O   _1 -0.51; O   _2 -0.51; H   _1 -0.45; 
@             H   _2 -0.45; H   _1 -0.41; H   _2 -0.41; H      -0.43; 
   2  Level shift: doubly occupied orbital energies shifted by -5.00D-02
 -----------------------------------------------------------------------------
   3  Screening settings (-IFTHRS, JTDIIS, DIFDEN, times)   -8    3    T  2.59D+01  2.59D+01
@  3  -433.762555478       4.12D-01  -1.15D-01    16  10   4   2
      Virial theorem: -V/T =      1.997409
@    MULPOP   C       2.10; C   _1 -0.07; C   _2 -0.07; C   _1  0.57; C   _2  0.57; C       0.32; N       0.15; O   _1 -0.59; O   _2 -0.59; H   _1 -0.51; 
@             H   _2 -0.51; H   _1 -0.46; H   _2 -0.46; H      -0.47; 
   3  Level shift: doubly occupied orbital energies shifted by -2.50D-02
 -----------------------------------------------------------------------------
   4  Screening settings (-IFTHRS, JTDIIS, DIFDEN, times)   -8    4    T  2.57D+01  2.57D+01
@  4  -433.774557169       1.35D-01  -1.20D-02    16  10   4   2
      Virial theorem: -V/T =      1.996253
@    MULPOP   C       2.13; C   _1 -0.10; C   _2 -0.10; C   _1  0.58; C   _2  0.58; C       0.32; N       0.07; O   _1 -0.57; O   _2 -0.57; H   _1 -0.49; 
@             H   _2 -0.49; H   _1 -0.45; H   _2 -0.45; H      -0.46; 
   4  Level shift: doubly occupied orbital energies shifted by -1.25D-02
 -----------------------------------------------------------------------------
   5  Screening settings (-IFTHRS, JTDIIS, DIFDEN, times)  -10    5    F  2.62D+01  2.62D+01
@  5  -433.775716203       5.24D-02  -1.16D-03    16  10   4   2
      Virial theorem: -V/T =      1.996055
@    MULPOP   C       2.16; C   _1 -0.11; C   _2 -0.11; C   _1  0.58; C   _2  0.58; C       0.30; N       0.07; O   _1 -0.58; O   _2 -0.58; H   _1 -0.49; 
@             H   _2 -0.49; H   _1 -0.44; H   _2 -0.44; H      -0.46; 
 -----------------------------------------------------------------------------
   6  Screening settings (-IFTHRS, JTDIIS, DIFDEN, times)  -10    6    T  2.60D+01  2.60D+01
@  6  -433.775896828       9.95D-03  -1.81D-04    16  10   4   2
      Virial theorem: -V/T =      1.996178
@    MULPOP   C       2.16; C   _1 -0.11; C   _2 -0.11; C   _1  0.58; C   _2  0.58; C       0.31; N       0.07; O   _1 -0.58; O   _2 -0.58; H   _1 -0.49; 
@             H   _2 -0.49; H   _1 -0.44; H   _2 -0.44; H      -0.45; 
 -----------------------------------------------------------------------------
   7  Screening settings (-IFTHRS, JTDIIS, DIFDEN, times)  -13    7    F  2.64D+01  2.64D+01
@  7  -433.775907215       2.26D-03  -1.04D-05    16  10   4   2
      Virial theorem: -V/T =      1.996162
@    MULPOP   C       2.16; C   _1 -0.12; C   _2 -0.12; C   _1  0.58; C   _2  0.58; C       0.31; N       0.06; O   _1 -0.58; O   _2 -0.58; H   _1 -0.49; 
@             H   _2 -0.49; H   _1 -0.44; H   _2 -0.44; H      -0.45; 
 -----------------------------------------------------------------------------
   8  Screening settings (-IFTHRS, JTDIIS, DIFDEN, times)  -13    8    T  2.62D+01  2.62D+01
@  8  -433.775907984       1.07D-03  -7.68D-07    16  10   4   2
      Virial theorem: -V/T =      1.996158
@    MULPOP   C       2.16; C   _1 -0.12; C   _2 -0.12; C   _1  0.58; C   _2  0.58; C       0.31; N       0.06; O   _1 -0.58; O   _2 -0.58; H   _1 -0.49; 
@             H   _2 -0.49; H   _1 -0.44; H   _2 -0.44; H      -0.45; 
 -----------------------------------------------------------------------------
   9  Screening settings (-IFTHRS, JTDIIS, DIFDEN, times)  -13    9    T  2.61D+01  2.61D+01
@  9  -433.775908146       3.68D-04  -1.62D-07    16  10   4   2
      Virial theorem: -V/T =      1.996160
@    MULPOP   C       2.16; C   _1 -0.12; C   _2 -0.12; C   _1  0.58; C   _2  0.58; C       0.31; N       0.06; O   _1 -0.58; O   _2 -0.58; H   _1 -0.49; 
@             H   _2 -0.49; H   _1 -0.44; H   _2 -0.44; H      -0.45; 
 -----------------------------------------------------------------------------
  10  Screening settings (-IFTHRS, JTDIIS, DIFDEN, times)  -13   10    T  2.61D+01  2.62D+01
@ 10  -433.775908192       1.46D-04  -4.61D-08    16  10   4   2
      Virial theorem: -V/T =      1.996160
@    MULPOP   C       2.16; C   _1 -0.11; C   _2 -0.11; C   _1  0.58; C   _2  0.58; C       0.31; N       0.06; O   _1 -0.58; O   _2 -0.58; H   _1 -0.49; 
@             H   _2 -0.49; H   _1 -0.44; H   _2 -0.44; H      -0.45; 
 -----------------------------------------------------------------------------
  11  Screening settings (-IFTHRS, JTDIIS, DIFDEN, times)  -13   11    T  2.60D+01  2.60D+01
@ 11  -433.775908201       5.87D-05  -9.00D-09    16  10   4   2
      Virial theorem: -V/T =      1.996160
@    MULPOP   C       2.16; C   _1 -0.11; C   _2 -0.11; C   _1  0.58; C   _2  0.58; C       0.31; N       0.06; O   _1 -0.58; O   _2 -0.58; H   _1 -0.49; 
@             H   _2 -0.49; H   _1 -0.44; H   _2 -0.44; H      -0.45; 
 -----------------------------------------------------------------------------
  12  Screening settings (-IFTHRS, JTDIIS, DIFDEN, times)  -13   12    T  2.60D+01  2.60D+01
@ 12  -433.775908202       2.45D-05  -1.07D-09    16  10   4   2
      Virial theorem: -V/T =      1.996160
@    MULPOP   C       2.16; C   _1 -0.11; C   _2 -0.11; C   _1  0.58; C   _2  0.58; C       0.31; N       0.06; O   _1 -0.58; O   _2 -0.58; H   _1 -0.49; 
@             H   _2 -0.49; H   _1 -0.44; H   _2 -0.44; H      -0.45; 
 -----------------------------------------------------------------------------
  13  Screening settings (-IFTHRS, JTDIIS, DIFDEN, times)  -13   13    T  2.59D+01  2.59D+01
@ 13  -433.775908202       6.28D-06  -1.28D-10    16  10   4   2
      Virial theorem: -V/T =      1.996160
@    MULPOP   C       2.16; C   _1 -0.11; C   _2 -0.11; C   _1  0.58; C   _2  0.58; C       0.31; N       0.06; O   _1 -0.58; O   _2 -0.58; H   _1 -0.49; 
@             H   _2 -0.49; H   _1 -0.44; H   _2 -0.44; H      -0.45; 
 -----------------------------------------------------------------------------
  14  Screening settings (-IFTHRS, JTDIIS, DIFDEN, times)  -13   14    T  2.58D+01  2.58D+01
@ 14  -433.775908202       2.52D-06  -9.09D-13    16  10   4   2
      Virial theorem: -V/T =      1.996160
@    MULPOP   C       2.16; C   _1 -0.11; C   _2 -0.11; C   _1  0.58; C   _2  0.58; C       0.31; N       0.06; O   _1 -0.58; O   _2 -0.58; H   _1 -0.49; 
@             H   _2 -0.49; H   _1 -0.44; H   _2 -0.44; H      -0.45; 
 -----------------------------------------------------------------------------
  15  Screening settings (-IFTHRS, JTDIIS, DIFDEN, times)  -13   15    T  2.58D+01  2.58D+01
@ 15  -433.775908202       8.99D-07  -1.48D-11    16  10   4   2

@ *** DIIS converged in  15 iterations !
@     Converged SCF energy, gradient:   -433.775908201786    8.99D-07
    - total time used in SIRFCK :              0.00 seconds

 --- Writing SIRIFC interface file

 CPU and wall time for SCF :     390.656     390.709


 ----- Output from SIRIUS MP2 module -----

 Reference: H.J.Aa.Jensen, P.Jorgensen, H.Agren, and J.Olsen,
            J. Chem. Phys. 88, 3834 (1988); 89, 5354 (1988)

 Checking that the closed shell orbitals are canonical Hartree-Fock orbitals

    Number of electrons  :   64
    Closed shell orbitals:   16   10    4    2

 Generating Fock matrix

 Hartree-Fock electronic energy:        -852.363325099045
 Hartree-Fock total      energy:        -433.775908201778

 Hartree-Fock orbital energies, symmetry 1 ( A1 ),   16 occupied SCF orbitals

       -20.68412321   -15.66193161   -11.35343330   -11.26445153   -11.25856421
       -11.24729832    -2.03713084    -1.22317272    -1.15780515    -1.04062827
        -0.88948661    -0.80269444    -0.75390084    -0.69179018    -0.63093580
        -0.53292150     0.03308155     0.04559549     0.06349476     0.10843588
         0.12396807     0.14122935     0.15424385     0.15739834     0.16990154
         0.18284690     0.20513617     0.24674966     0.26721636     0.28802606
         0.31988905     0.33330551     0.34366267     0.35902553     0.36378897
         0.39185413     0.40950453     0.42343758     0.45806429     0.47431189
         0.51082586     0.56993762     0.57563722     0.60979387     0.62784336
         0.66767089     0.67580149     0.68455326     0.72063413     0.76077141
         0.78934236     0.83848897     0.89973264     0.90255675     0.95930714
         0.98869812     1.01811331     1.06725321     1.07482001     1.08980925
         1.20875312     1.28996276     1.34060772     1.41698338     1.50032371
         1.53986909     1.55504735     1.59514462     1.60891405     1.63408876
         1.69835824     1.73535996     1.76830555     1.79125784     1.87280790
         1.95962517     1.99198297     2.03405418     2.03894935     2.20587918
         2.23684961     2.30248445     2.36248438     2.40955171     2.44008407
         2.52263540     2.56654312     2.69489519     2.75235078     2.83994766
         2.91488809     2.97723083     3.05505271     3.16433604     3.18179627
         3.31660768     3.54315709     3.88545023     4.07121468     4.17453347
        19.81883329    20.32471291    20.47039143    20.64000971    23.37015433
        23.43755682    23.48431142    23.80823499    23.90979691    24.12913566
        27.37093636    31.76386153    35.76333442    39.57682478    40.04612225

 Hartree-Fock orbital energies, symmetry 2 ( B1 ),   10 occupied SCF orbitals

       -20.68226507   -11.26442632   -11.25857780    -1.13904280    -1.03969240
        -0.85381874    -0.65562439    -0.61048282    -0.56447049    -0.51658522
         0.03893999     0.05744875     0.13329144     0.13739495     0.15235622
         0.16138446     0.18101093     0.20704216     0.25857144     0.29601974
         0.30486637     0.31759705     0.34896231     0.36434117     0.37836582
         0.39973215     0.41472062     0.43330632     0.51309596     0.55882806
         0.58081609     0.62965117     0.65624219     0.67952384     0.69779778
         0.74674049     0.77239525     0.81064670     0.83657095     0.85757718
         0.88993718     0.92271875     1.03391162     1.16876818     1.25089131
         1.31070409     1.35963670     1.39632480     1.46013805     1.50715421
         1.53138592     1.60383382     1.63512885     1.66039774     1.72210420
         1.76816185     1.78769859     1.82447301     1.87107384     1.93946886
         2.05565361     2.13858600     2.17526321     2.31856320     2.33376315
         2.38645577     2.45213549     2.54434605     2.68037501     2.73499539
         2.91016587     2.94508695     3.17032394     3.31913063     3.37140844
         3.43182597     4.01823265     4.47120188     4.81380602    20.29682390
        20.48028388    22.87709692    23.33110946    23.39494221    23.96278104
        24.13253301    24.31913727    31.33311083    36.00700588    40.01676293
        41.32856301

 Hartree-Fock orbital energies, symmetry 3 ( B2 ),    4 occupied SCF orbitals

        -0.93504831    -0.54467385    -0.43680133    -0.30617881     0.10387529
         0.11994515     0.13900175     0.18509520     0.19014218     0.23140937
         0.29884181     0.33992917     0.39090627     0.46837226     0.54706348
         0.59969203     0.67277319     0.71671433     0.79522885     0.87755798
         0.91505861     0.93112351     0.95761323     1.04800496     1.08998187
         1.15014969     1.18417682     1.47960361     1.52660175     1.62909544
         1.68258345     1.71716161     1.85286202     1.94433215     2.09727715
         2.12954947     2.18381329     2.31287102     2.56621480     2.69208115
         3.09392818     3.74955429    22.56529275    22.71363603    22.84250249
        23.04114556    30.76330842    39.43917814

 Hartree-Fock orbital energies, symmetry 4 ( A2 ),    2 occupied SCF orbitals

        -0.39102642    -0.35857212     0.09419470     0.13725660     0.19120036
         0.28433098     0.41890027     0.49523519     0.55161161     0.65969463
         0.74506998     0.88963415     0.90978538     0.94788078     1.04073468
         1.08162484     1.23029995     1.31627439     1.44725381     1.62209442
         1.69184778     1.70265227     1.85169293     1.88516322     2.11471827
         2.18921960     2.36128979     2.54382740     2.63088180     3.86357013
         4.33299069    22.70900245    22.87790796    39.46043892

    E(LUMO) :     0.03308155   (in symmetry 1)
  - E(HOMO) :    -0.30617881   (in symmetry 3)
  --------------------------
    gap     :     0.33926035

---> (Re)generating AOTWOINT


     ************************************************************************
     ************************** Output from HERINT **************************
     ************************************************************************


 Threshold for neglecting two-electron integrals:  1.00D-12
 HERMIT - Number of two-electron integrals written:   198383314 ( 22.9% )
 HERMIT - Megabytes written:                           3028.352

  Time used in TWOINT     is      35.66 seconds

 2-el. integral transformation level 5: Total CPU and WALL times (sec)     382.469     385.406

 MP2 move   0.897822 electrons to unoccupied HF orbitals


@   Hartree-Fock total energy   :          -433.7759082018
@   + MP2 contribution          :            -1.6600998521
@   = MP2 second order energy   :          -435.4360080539

 Natural orbital occupation numbers, symmetry 1 (irrep A1 )
 Sum =    31.99011643; RHF =    32.00000000; Difference =    -0.00988357

         1.99928309     1.99905890     1.99876113     1.99875776     1.99875209
         1.99874856     1.98975608     1.98421414     1.97980339     1.97441086
         1.96985596     1.96792633     1.96631656     1.96275294     1.95588149
         1.94899964     0.03794904     0.02565721     0.02424600     0.02213544
         0.01898152     0.01726067     0.01648950     0.01356558     0.01322151
         0.01228530     0.00997730     0.00890388     0.00835455     0.00768122
         0.00670678     0.00637348     0.00469757     0.00430233     0.00341666
         0.00299127     0.00288064     0.00257837     0.00236855     0.00205696
         0.00169516     0.00161154     0.00143634     0.00128412     0.00126164
         0.00117510     0.00106666     0.00095583     0.00073546     0.00065624
         0.00061776     0.00051030     0.00048647     0.00044566     0.00042684
         0.00041540     0.00039864     0.00037426     0.00035559     0.00035114
         0.00033506     0.00032496     0.00031432     0.00030402     0.00028093
         0.00026258     0.00023318     0.00022434     0.00022064     0.00019767
         0.00019375     0.00018346     0.00017702     0.00017263     0.00016753
         0.00016026     0.00015558     0.00014359     0.00013850     0.00013561
         0.00013257     0.00012223     0.00011787     0.00010500     0.00010112
         0.00009251     0.00007813     0.00006536     0.00005862     0.00005164
         0.00004495     0.00003618     0.00003342     0.00002529     0.00001710
         0.00001456     0.00001363     0.00001250     0.00001067     0.00000957
         0.00000828     0.00000743     0.00000657     0.00000358     0.00000226
         0.00000125     0.00000086     0.00000072     0.00000046     0.00000027
         0.00000016     0.00000007    -0.00000008    -0.00000073    -0.00000363

 Natural orbital occupation numbers, symmetry 2 (irrep B1 )
 Sum =    19.99608077; RHF =    20.00000000; Difference =    -0.00391923

         1.99927600     1.99875753     1.99874982     1.98174262     1.98000529
         1.97257895     1.96086845     1.95557413     1.95428207     1.94547030
         0.04522508     0.02508419     0.02387864     0.02132205     0.01700452
         0.01640262     0.01574011     0.01194383     0.00967282     0.00911764
         0.00818145     0.00561988     0.00532880     0.00353427     0.00320995
         0.00306187     0.00250471     0.00216964     0.00203113     0.00164251
         0.00161504     0.00140827     0.00133177     0.00125133     0.00103772
         0.00099401     0.00068187     0.00064291     0.00054399     0.00045705
         0.00042552     0.00041463     0.00036881     0.00033830     0.00032821
         0.00029954     0.00029242     0.00026712     0.00025278     0.00022160
         0.00020876     0.00019928     0.00018821     0.00018304     0.00018188
         0.00017191     0.00016754     0.00016280     0.00015098     0.00014197
         0.00013575     0.00013091     0.00012350     0.00011938     0.00010262
         0.00010165     0.00009286     0.00007984     0.00005261     0.00004583
         0.00003184     0.00003098     0.00002367     0.00001845     0.00001580
         0.00001379     0.00001212     0.00001158     0.00000941     0.00000892
         0.00000443     0.00000293     0.00000135     0.00000100     0.00000063
         0.00000036     0.00000027     0.00000012    -0.00000005    -0.00000070
        -0.00000118

 Natural orbital occupation numbers, symmetry 3 (irrep B2 )
 Sum =     7.99206168; RHF =     8.00000000; Difference =    -0.00793832

         1.97868670     1.95904523     1.94528340     1.90746257     0.07110714
         0.03170027     0.01486035     0.01407015     0.01078012     0.01000295
         0.00894339     0.00731614     0.00712159     0.00533384     0.00403558
         0.00333915     0.00236300     0.00162179     0.00146756     0.00091822
         0.00089470     0.00070491     0.00055457     0.00050372     0.00047988
         0.00045129     0.00039249     0.00034655     0.00030273     0.00024590
         0.00021398     0.00020178     0.00019221     0.00018239     0.00017267
         0.00013755     0.00012721     0.00011734     0.00009871     0.00009258
         0.00007555     0.00005551     0.00002669     0.00002355     0.00001190
         0.00000714     0.00000175    -0.00001270

 Natural orbital occupation numbers, symmetry 4 (irrep A2 )
 Sum =     4.02174111; RHF =     4.00000000; Difference =     0.02174111

         1.96892544     1.91271963     0.06950731     0.01703917     0.01100226
         0.00968580     0.00728451     0.00577332     0.00436314     0.00373641
         0.00272506     0.00161375     0.00146022     0.00096311     0.00079446
         0.00074270     0.00062949     0.00053718     0.00041611     0.00038140
         0.00031578     0.00023940     0.00019745     0.00018608     0.00014990
         0.00013325     0.00012447     0.00009924     0.00007466     0.00005032
         0.00002201     0.00001921     0.00000950    -0.00018064

 Time used for MP2 natural orbitals :     412.094 CPU seconds,     415.037 wall seconds.

 CPU and wall time for MP2 :     412.094     415.037


        SIRIUS MCSCF optimization (SIROPT)
 ================================================


 Fock matrix screening setting for SIRCNO: IFTHRS =    9


 ----- Output from SIRIUS CI module (CICTL) -----




 2-el. integral transformation level 0: Total CPU and WALL times (sec)      91.422      91.429


 --- SIRCI.CIST1: plus combination of all degenerate
                 configurations is used as start vectors.


 (CIST1) 18 lowest diagonal elements:

 Element no. Config.no.    Active energy      Total energy

         1 :         47    -15.0927883830   -433.5502261514
         2 :         48    -14.8361343328   -433.2935721012
         3 :         56    -14.6560746414   -433.1135124098
         4 :         51    -14.5263607761   -432.9837985444
         5 :         49    -14.3168796244   -432.7743173928
         6 :         39    -14.3116655037   -432.7691032721
         7 :         31    -14.3106294279   -432.7680671963
         8 :          9    -14.3084606626   -432.7658984310
         9 :         19    -14.2442639530   -432.7017017214
        10 :         34    -14.1690980468   -432.6265358151
        11 :         50    -14.1684774321   -432.6259152004
        12 :         10    -14.1663995827   -432.6238373510
        13 :         40    -14.1633035415   -432.6207413098
        14 :         21    -14.1520676667   -432.6095054351
        15 :          5    -14.0563103535   -432.5137481219
        16 :         24    -14.0462373325   -432.5036751009
        17 :         17    -14.0202654414   -432.4777032098
        18 :         32    -14.0190865475   -432.4765243159


 Convergence threshold for CI optimization :     0.00000500



 *** Reached maximum number of CI iterations:    3
              1 CI roots are not converged.


@ Final CI energies and residuals in symmetry 1 (irrep A1 )
@    1     -433.552812465435977       5.45D-02
@    2     -433.297605979497348       9.32D-05
@    3     -433.111254919387193       5.63D-02
@    4     -432.983222021670940       3.45D-02
@    5     -432.821593609386184       3.05D-02
@    6     -432.721739545333435       3.16D-02

   --- OUTPUT FROM SIRCNO     Keyword = FD+NO 


 Occupations of CAS natural orbitals:

 Symmetry  1 ( irrep A1  in C2v )

   1.996617395

 Symmetry  2 ( irrep B1  in C2v )

   0.003397877

 Symmetry  3 ( irrep B2  in C2v )

   1.999980488   1.999739209

 Symmetry  4 ( irrep A2  in C2v )

   1.000017335   1.999999329   1.000248367


 --- MACRO ITERATION  1 ---
 --------------------------

 2-el. integral transformation level 3: Total CPU and WALL times (sec)      94.125      94.114

 Fock matrix screening setting for this macro iteration: 10^( -9)

 Total MCSCF energy       :          -433.297605979167429  (MACRO    1)

 - Nuclear repulsion      :           418.587416897267303
 - Inactive energy        :          -837.044854663981823
 - Active energy          :           -14.840168212452884

 Norm of total gradient   :             1.706114958983
 -    of CI gradient      :             0.000186386592
 -    of orbital gradient :             1.706114948802
      Virial theorem: -V/T =      1.987087
@    MULPOP   C       2.02; C   _1 -0.23; C   _2 -0.23; C   _1  0.30; C   _2  0.30; C       0.36; N       0.93; O   _1 -0.47; O   _2 -0.47; H   _1 -0.54; 
@             H   _2 -0.54; H   _1 -0.47; H   _2 -0.47; H      -0.49; 

 Residual norm when dim(red L) =   7
 NEO root     CSF        orbital          total
    1     0.01712748     0.02039098     0.02662973 converged

 (NEONEX) NEO auxiliary root no.  1 is converged.

 Residual norm when dim(red L) =   8
 NEO root     CSF        orbital          total
    2     0.02641089     0.19660799     0.19837398 converged

 (NEONEX) NEO vector is converged.

   --- OUTPUT FROM SIRCNO     Keyword = FD+NO 


 Occupations of CAS natural orbitals:

 Symmetry  1 ( irrep A1  in C2v )

   1.996608402

 Symmetry  2 ( irrep B1  in C2v )

   0.003407739

 Symmetry  3 ( irrep B2  in C2v )

   1.999975238   1.999735398

 Symmetry  4 ( irrep A2  in C2v )

   1.000022475   1.999998644   1.000252105


 --- MACRO ITERATION  2 ---
 --------------------------

 2-el. integral transformation level 3: Total CPU and WALL times (sec)      92.875      92.877

 Fock matrix screening setting for this macro iteration: 10^( -9)

 Total MCSCF energy       :          -433.551836218036613  (MACRO    2)

 - Nuclear repulsion      :           418.587416897267303
 - Inactive energy        :          -836.861958606050848
 - Active energy          :           -15.277294509253061

 Norm of total gradient   :             0.259228347699
 -    of CI gradient      :             0.030948415665
 -    of orbital gradient :             0.257374302949
      Virial theorem: -V/T =      1.986519
@    MULPOP   C       2.43; C   _1 -0.16; C   _2 -0.16; C   _1  0.54; C   _2  0.54; C       0.31; N       0.46; O   _1 -0.60; O   _2 -0.60; H   _1 -0.63; 
@             H   _2 -0.63; H   _1 -0.52; H   _2 -0.52; H      -0.46; 

 Residual norm when dim(red L) =  11
 NEO root     CSF        orbital          total
    1     0.01685508     0.08869180     0.09027917 converged

 (NEONEX) NEO auxiliary root no.  1 is converged.

 (SIRNEO) iteration (  2,  8)
 Micro iteration termination criterion met, EVAL(ISTATE+1) = -4.39D-05

   --- OUTPUT FROM SIRCNO     Keyword = FD+NO 


 Occupations of CAS natural orbitals:

 Symmetry  1 ( irrep A1  in C2v )

   1.991071341

 Symmetry  2 ( irrep B1  in C2v )

   0.008959778

 Symmetry  3 ( irrep B2  in C2v )

   1.999918683   1.999749028

 Symmetry  4 ( irrep A2  in C2v )

   1.000226825   1.999998795   1.000075550


 --- MACRO ITERATION  3 ---
 --------------------------

 2-el. integral transformation level 3: Total CPU and WALL times (sec)      92.453      92.460

 Fock matrix screening setting for this macro iteration: 10^( -9)

 Total MCSCF energy       :          -433.560815274750894  (MACRO    3)

 - Nuclear repulsion      :           418.587416897267303
 - Inactive energy        :          -836.597341875246457
 - Active energy          :           -15.550890296771723

 Norm of total gradient   :             0.084859693065
 -    of CI gradient      :             0.055373283229
 -    of orbital gradient :             0.064303709159
      Virial theorem: -V/T =      1.989904
@    MULPOP   C       2.18; C   _1 -0.15; C   _2 -0.15; C   _1  0.45; C   _2  0.45; C       0.35; N       0.77; O   _1 -0.58; O   _2 -0.58; H   _1 -0.63; 
@             H   _2 -0.63; H   _1 -0.50; H   _2 -0.50; H      -0.46; 

 Residual norm when dim(red L) =   6
 NEO root     CSF        orbital          total
    1     0.04859191     0.06022176     0.07738110 converged

 (NEONEX) NEO auxiliary root no.  1 is converged.

 (SIRNEO) iteration (  3,  5)
 Micro iteration termination criterion met, EVAL(ISTATE+1) = -9.73D-04

   --- OUTPUT FROM SIRCNO     Keyword = FD+NO 


 Occupations of CAS natural orbitals:

 Symmetry  1 ( irrep A1  in C2v )

   1.989847989

 Symmetry  2 ( irrep B1  in C2v )

   0.010161614

 Symmetry  3 ( irrep B2  in C2v )

   1.999935680   1.997259817

 Symmetry  4 ( irrep A2  in C2v )

   1.002732682   1.999998450   1.000063768


 --- MACRO ITERATION  4 ---
 --------------------------

 2-el. integral transformation level 3: Total CPU and WALL times (sec)      92.266      92.294

 Fock matrix screening setting for this macro iteration: 10^( -9)

 Total MCSCF energy       :          -433.562788966486380  (MACRO    4)

 - Nuclear repulsion      :           418.587416897267303
 - Inactive energy        :          -835.923836458636742
 - Active energy          :           -16.226369405116959

 Norm of total gradient   :             0.072164649011
 -    of CI gradient      :             0.067529798130
 -    of orbital gradient :             0.025445292912
      Virial theorem: -V/T =      1.992739
@    MULPOP   C       2.04; C   _1 -0.20; C   _2 -0.20; C   _1  0.46; C   _2  0.46; C       0.35; N       0.53; O   _1 -0.37; O   _2 -0.37; H   _1 -0.62; 
@             H   _2 -0.62; H   _1 -0.50; H   _2 -0.50; H      -0.46; 

 Residual norm when dim(red L) =   8
 NEO root     CSF        orbital          total
    1     0.01974827     0.04571551     0.04979862 converged

 (NEONEX) NEO auxiliary root no.  1 is converged.

 (SIRNEO) iteration (  4,  7)
 Micro iteration termination criterion met, EVAL(ISTATE+1) = -1.01D-03

   --- OUTPUT FROM SIRCNO     Keyword = FD+NO 


 Occupations of CAS natural orbitals:

 Symmetry  1 ( irrep A1  in C2v )

   1.993000201

 Symmetry  2 ( irrep B1  in C2v )

   0.007009795

 Symmetry  3 ( irrep B2  in C2v )

   1.999611916   1.999887923

 Symmetry  4 ( irrep A2  in C2v )

   1.000384369   1.999999761   1.000106035


 --- MACRO ITERATION  5 ---
 --------------------------

 2-el. integral transformation level 3: Total CPU and WALL times (sec)      92.781      92.799

 Fock matrix screening setting for this macro iteration: 10^( -9)

 Total MCSCF energy       :          -433.563490338752104  (MACRO    5)

 - Nuclear repulsion      :           418.587416897267303
 - Inactive energy        :          -835.418123746564561
 - Active energy          :           -16.732783489454853

 Norm of total gradient   :             0.023243534543
 -    of CI gradient      :             0.021672998175
 -    of orbital gradient :             0.008398990902
      Virial theorem: -V/T =      1.992600
@    MULPOP   C       2.10; C   _1 -0.20; C   _2 -0.20; C   _1  0.47; C   _2  0.47; C       0.35; N       0.32; O   _1 -0.31; O   _2 -0.31; H   _1 -0.62; 
@             H   _2 -0.62; H   _1 -0.50; H   _2 -0.50; H      -0.46; 

 Residual norm when dim(red L) =   8
 NEO root     CSF        orbital          total
    1     0.03534520     0.03604396     0.05048218 converged

 (NEONEX) NEO auxiliary root no.  1 is converged.

 Residual norm when dim(red L) =  26
 NEO root     CSF        orbital          total
    2     0.00246750     0.00149585     0.00288550 converged

 (NEONEX) NEO vector is converged.

   --- OUTPUT FROM SIRCNO     Keyword = FD+NO 


 Occupations of CAS natural orbitals:

 Symmetry  1 ( irrep A1  in C2v )

   1.993097863

 Symmetry  2 ( irrep B1  in C2v )

   0.006911428

 Symmetry  3 ( irrep B2  in C2v )

   1.999632706   1.999910141

 Symmetry  4 ( irrep A2  in C2v )

   1.000358971   1.999999755   1.000089136


 --- MACRO ITERATION  6 ---
 --------------------------

 2-el. integral transformation level 3: Total CPU and WALL times (sec)      93.141      93.168

 Fock matrix screening setting for this macro iteration: 10^( -9)

 Total MCSCF energy       :          -433.563538620723762  (MACRO    6)

 - Nuclear repulsion      :           418.587416897267303
 - Inactive energy        :          -835.511215317266533
 - Active energy          :           -16.639740200724528

 Norm of total gradient   :             0.021417045526
 -    of CI gradient      :             0.019758030276
 -    of orbital gradient :             0.008264991148
      Virial theorem: -V/T =      1.993401
@    MULPOP   C       2.00; C   _1 -0.20; C   _2 -0.20; C   _1  0.47; C   _2  0.47; C       0.34; N       0.32; O   _1 -0.25; O   _2 -0.25; H   _1 -0.61; 
@             H   _2 -0.61; H   _1 -0.50; H   _2 -0.50; H      -0.46; 

 Residual norm when dim(red L) =   6
 NEO root     CSF        orbital          total
    1     0.02333753     0.04760683     0.05301934 converged

 (NEONEX) NEO auxiliary root no.  1 is converged.

 (SIRNEO) iteration (  6, 24)
 maximum number of microiterations reached

   --- OUTPUT FROM SIRCNO     Keyword = FD+NO 


 Occupations of CAS natural orbitals:

 Symmetry  1 ( irrep A1  in C2v )

   1.992650211

 Symmetry  2 ( irrep B1  in C2v )

   0.007358507

 Symmetry  3 ( irrep B2  in C2v )

   1.999334626   1.999948791

 Symmetry  4 ( irrep A2  in C2v )

   1.000657024   1.999999703   1.000051137


 --- MACRO ITERATION  7 ---
 --------------------------

 2-el. integral transformation level 3: Total CPU and WALL times (sec)      92.797      92.800

 Fock matrix screening setting for this macro iteration: 10^( -9)

 Total MCSCF energy       :          -433.563965666243803  (MACRO    7)

 - Nuclear repulsion      :           418.587416897267303
 - Inactive energy        :          -835.348653342407601
 - Active energy          :           -16.802729221103508

 Norm of total gradient   :             0.020978432621
 -    of CI gradient      :             0.019167188802
 -    of orbital gradient :             0.008527221628
      Virial theorem: -V/T =      1.992058
@    MULPOP   C       2.28; C   _1  0.05; C   _2  0.05; C   _1  0.46; C   _2  0.46; C       0.34; N      -0.50; O   _1 -0.24; O   _2 -0.24; H   _1 -0.60; 
@             H   _2 -0.60; H   _1 -0.50; H   _2 -0.50; H      -0.46; 

 Residual norm when dim(red L) =   6
 NEO root     CSF        orbital          total
    1     0.00464532     0.04088233     0.04114540 converged

 (NEONEX) NEO auxiliary root no.  1 is converged.

 (ORTBVC) new orbital b-vector no.  1
 is removed because of linear dependence;
 norm of vector after Gram-Schmidt's orthogonalization 6.23456D-16

 (ORTBVC) NBOSIM reduced from  1 to  0

 (SIRNEO) iteration (  7, 10)
 microiterations stopped because of linear dependence

   --- OUTPUT FROM SIRCNO     Keyword = FD+NO 


 Occupations of CAS natural orbitals:

 Symmetry  1 ( irrep A1  in C2v )

   1.992597494

 Symmetry  2 ( irrep B1  in C2v )

   0.007422460

 Symmetry  3 ( irrep B2  in C2v )

   1.999373355   1.999904070

 Symmetry  4 ( irrep A2  in C2v )

   1.000606976   1.999999657   1.000095988


 --- MACRO ITERATION  8 ---
 --------------------------

 2-el. integral transformation level 3: Total CPU and WALL times (sec)      92.703      92.700

 Fock matrix screening setting for this macro iteration: 10^( -9)

 Total MCSCF energy       :          -433.563941213392070  (MACRO    8)

 - Nuclear repulsion      :           418.587416897267303
 - Inactive energy        :          -834.834375077113918
 - Active energy          :           -17.316983033545469

 Norm of total gradient   :             0.026143493351
 -    of CI gradient      :             0.021700739613
 -    of orbital gradient :             0.014579442542
      Virial theorem: -V/T =      1.993100
@    MULPOP   C       2.19; C   _1 -0.06; C   _2 -0.06; C   _1  0.45; C   _2  0.45; C       0.35; N      -0.26; O   _1 -0.20; O   _2 -0.20; H   _1 -0.60; 
@             H   _2 -0.60; H   _1 -0.50; H   _2 -0.50; H      -0.46; 

 (SIRSTP) Energy difference;
 actual, predicted and ratio:   0.000024452851733   0.000007813956728    3.129382

 (SIRSTP) step is too large -- backstep

   --- OUTPUT FROM SIRCNO     Keyword = FD+NO 


 Occupations of CAS natural orbitals:

 Symmetry  1 ( irrep A1  in C2v )

   1.992618117

 Symmetry  2 ( irrep B1  in C2v )

   0.007397375

 Symmetry  3 ( irrep B2  in C2v )

   1.999363828   1.999919750

 Symmetry  4 ( irrep A2  in C2v )

   1.000620967   1.999999674   1.000080288


 Optimization control: Step was too large, we backstep


 --- MACRO ITERATION  8 BACKSTEP NO.  1 ---

 2-el. integral transformation level 3: Total CPU and WALL times (sec)      92.828      92.839

 Fock matrix screening setting for this macro iteration: 10^( -9)

 Total MCSCF energy       :          -433.563956955342121  (MACRO    8)

 - Nuclear repulsion      :           418.587416897267303
 - Inactive energy        :          -835.062402875449834
 - Active energy          :           -17.088970977159587

 Norm of total gradient   :             0.023542789394
 -    of CI gradient      :             0.020247174758
 -    of orbital gradient :             0.012013111452
      Virial theorem: -V/T =      1.992734
@    MULPOP   C       2.22; C   _1 -0.01; C   _2 -0.01; C   _1  0.45; C   _2  0.45; C       0.34; N      -0.36; O   _1 -0.21; O   _2 -0.21; H   _1 -0.60; 
@             H   _2 -0.60; H   _1 -0.50; H   _2 -0.50; H      -0.46; 

 (SIRSTP) Energy difference;
 actual, predicted and ratio:   0.000008710901682   0.000003507771463    2.483315

 (SIRSTP) step is too large -- backstep

   --- OUTPUT FROM SIRCNO     Keyword = FD+NO 


 Occupations of CAS natural orbitals:

 Symmetry  1 ( irrep A1  in C2v )

   1.992630157

 Symmetry  2 ( irrep B1  in C2v )

   0.007382762

 Symmetry  3 ( irrep B2  in C2v )

   1.999355562   1.999929838

 Symmetry  4 ( irrep A2  in C2v )

   1.000631816   1.999999684   1.000070181


 Optimization control: Step was too large, we backstep


 --- MACRO ITERATION  8 BACKSTEP NO.  2 ---

 2-el. integral transformation level 3: Total CPU and WALL times (sec)      92.750      92.775

 Fock matrix screening setting for this macro iteration: 10^( -9)

 Total MCSCF energy       :          -433.563962508438749  (MACRO    8)

 - Nuclear repulsion      :           418.587416897267303
 - Inactive energy        :          -835.190112352502865
 - Active energy          :           -16.961267053203173

 Norm of total gradient   :             0.022251225994
 -    of CI gradient      :             0.019610206074
 -    of orbital gradient :             0.010514602989
      Virial theorem: -V/T =      1.992499
@    MULPOP   C       2.24; C   _1  0.01; C   _2  0.01; C   _1  0.46; C   _2  0.46; C       0.34; N      -0.41; O   _1 -0.22; O   _2 -0.22; H   _1 -0.60; 
@             H   _2 -0.60; H   _1 -0.50; H   _2 -0.50; H      -0.46; 

 (SIRSTP) Energy difference;
 actual, predicted and ratio:   0.000003157805054   0.000001574696422    2.005342

 (SIRSTP) step is too large -- backstep

   --- OUTPUT FROM SIRCNO     Keyword = FD+NO 


 Occupations of CAS natural orbitals:

 Symmetry  1 ( irrep A1  in C2v )

   1.992637425

 Symmetry  2 ( irrep B1  in C2v )

   0.007373956

 Symmetry  3 ( irrep B2  in C2v )

   1.999349244   1.999936343

[...]
  84 H   :1s    -0.0585  -0.0197  -0.1458  -0.0240   0.1131   0.9256  -0.0401
  85 H   :1s     0.0068   0.0017  -0.0209  -0.0402  -0.8753   6.4001   2.9380
  86 H   :2px   -0.0023   0.0102  -0.0063  -0.0057  -0.0007  -0.0064   0.0008
  88 H   :2px   -0.0005   0.0069  -0.0600   0.0086   0.0418   0.0724  -0.0441
  89 H   :2pz   -0.0273   0.0178  -0.0242  -0.0091  -0.0100   0.0003   0.0033
  91 H   :2px   -0.0072  -0.0037   0.0175   0.0399   0.0618  -0.1279  -0.0464

    Orbital        15       16       17       18       19       20       21
   1 C   :2px    0.0022   0.0243   0.0387  -0.0157  -0.0484   0.0096   0.0853
   2 C   :2px    0.6897   2.9922  -2.1249  -1.9162   4.2503 -10.7039   1.9380
   4 C   :2px  -37.4084 -24.1462  10.9434   5.9692   0.7108 114.2198 -56.3273
   5 C   :3d1+   0.0042  -0.0109   0.0029   0.0142   0.0047   0.0066   0.0208
   6 C   :3d1+  -0.9208  -0.5301   1.1346   0.6111  -1.8989   3.1153   1.8365
   7 C   :1s     0.0255  -0.0163  -0.0015   0.0001   0.0006  -0.0058   0.0055
   8 C   :1s     0.0409  -0.0106   0.0081  -0.0153  -0.0292  -0.0385  -0.0043
   9 C   :1s    -0.8844   2.1605  -1.1328  -1.1416   1.4649   2.0962  -3.0529
  11 C   :1s   -38.8146  -2.9949  16.0966  14.7976   1.1927   7.9033   8.5309
  12 C   :2px    0.0691  -0.0824   0.0012   0.0764   0.0433  -0.0082  -0.0037
  13 C   :2pz   -0.0315   0.0407  -0.0383  -0.0411  -0.0052   0.0127  -0.0445
  14 C   :2px    1.1223   1.4004  -1.9025  -1.8295   2.5378  -5.0094  -1.0967
  15 C   :2pz    0.8742   0.0536  -0.9754  -0.1306   3.7533 -10.1062   3.0024
  18 C   :2px  -11.6918  -1.0983   8.7665  -2.2086 -12.2239  54.4729 -30.0981
  19 C   :2pz  -11.1199 -21.0657   9.2230  -2.8806 -10.1115  87.0253 -61.3918
  20 C   :3d0   -0.0016  -0.0013  -0.0076  -0.0004   0.0014   0.0137   0.0185
  21 C   :3d1+  -0.0048  -0.0059  -0.0096  -0.0087   0.0147  -0.0069  -0.0160
  22 C   :3d2+   0.0040   0.0118  -0.0059  -0.0054  -0.0007   0.0002  -0.0069
  23 C   :3d0   -0.6603   0.0111   0.6608  -0.0098  -1.7242   2.9497  -0.1460
  24 C   :3d1+   0.1720   1.0278   0.1215  -0.0859   0.0428  -1.6641   1.2074
  25 C   :3d2+   0.0261  -0.0026  -0.2195   0.0870   0.8525  -1.7613   0.1230
  26 C   :1s     0.0048   0.0147   0.0053   0.0161  -0.0217  -0.0129  -0.0009
  27 C   :1s     0.0153   0.0069  -0.0052  -0.0077  -0.0557  -0.0473   0.0315
  28 C   :1s    -0.2805   0.3379  -0.2326  -1.6503   4.2568   1.9874  -0.5331
  30 C   :1s     1.1441 -27.1678 -12.0098 -13.7319 -12.1104 -13.2040 -12.7637
  31 C   :2px    0.0206   0.0137  -0.0035   0.1083  -0.0759  -0.0091   0.0034
  32 C   :2pz    0.0146  -0.0129   0.0344   0.0483  -0.0285   0.0179   0.0407
  33 C   :2px   -1.0536   1.3804   1.2434  -1.6449   0.2421   7.5087  -1.1133
  34 C   :2pz    1.7983  -0.3463  -0.8255   0.9650   2.9104 -10.8347   3.0187
  37 C   :2px    5.2015   0.6554  -7.6963  -4.8614  12.3045 -54.5128  30.9095
  38 C   :2pz   -4.3433  -8.7628   3.7604  -4.9822  -0.9566  95.7224 -54.7528
  39 C   :3d0    0.0046   0.0012   0.0076   0.0052   0.0060  -0.0102   0.0078
  40 C   :3d1+   0.0090  -0.0083  -0.0049   0.0020   0.0049  -0.0119   0.0088
  41 C   :3d2+   0.0019   0.0044   0.0002  -0.0093   0.0117   0.0068  -0.0005
  42 C   :3d0    0.4106  -0.3757  -0.2598   0.0085   0.6858  -3.6351   0.8566
  43 C   :3d1+   0.1873   0.2538   0.3618   0.9079  -0.5442  -2.1877   1.2063
  44 C   :3d2+  -0.3375  -0.0781   0.0548  -0.1418  -0.4544   2.0775  -0.5534
  45 C   :2px    0.0206  -0.0211   0.0311  -0.0192   0.0327  -0.0048   0.0418
  46 C   :2px   -2.1533   0.6348   0.7979  -3.5148   0.4707  13.7715  -3.9738
  48 C   :2px    5.8658   1.5991 -12.7210  -1.4601  -5.1550-114.6433  59.4838
  49 C   :3d1+  -0.0063   0.0051   0.0043  -0.0193   0.0033   0.0150  -0.0030
  50 C   :3d1+  -0.7317   0.6778   0.8599  -0.5310   0.3688   5.2655  -1.1698
  51 N   :2px    0.0413  -0.0543   0.0199  -0.0243  -0.0061   0.0533   0.1845
  52 N   :2px    0.1274  -0.0652  -0.2519  -0.1091   0.3930  -0.1757   0.0094
  54 N   :2px    6.0028  -1.3012   5.7669  -3.0248  -6.3039  -0.7139 -10.6153
  55 N   :3d1+   0.0117  -0.0097   0.0067  -0.0052  -0.0063   0.0104   0.0007
  56 N   :3d1+  -0.1724   0.0161  -0.0811  -0.0326   0.1734  -0.0766   0.7880
  57 O   :1s     0.0093  -0.0080   0.0093  -0.0065  -0.0058   0.0026   0.0151
  58 O   :1s     0.0586  -0.0584   0.0248  -0.0213  -0.0144   0.0514   0.1943
  59 O   :1s    -0.3655   0.2785  -0.5524   0.2914   0.4335   0.0266  -0.0875
  61 O   :1s    -3.8286   2.2414  -3.3809   3.4596   4.4346   1.9083  -1.7115
  62 O   :2px   -0.0126   0.0274  -0.0151   0.0061   0.0051  -0.0507  -0.0730
  63 O   :2pz   -0.0228   0.0275  -0.0351   0.0161   0.0232  -0.0182  -0.0173
  64 O   :2px    0.3997  -0.2636   0.5574  -0.2228  -0.5285   0.0676  -0.2078
  65 O   :2pz   -0.0352  -0.0078  -0.1106  -0.0588   0.1581  -0.0689   0.3775
  68 O   :2px    0.0387  -0.0349  -0.7448  -0.4610  -0.0375  -1.5182   2.5789
  69 O   :2pz    1.5277  -1.1899   2.5086  -0.9842  -1.8149   1.9324  -0.3622
  70 O   :3d0    0.0038  -0.0063   0.0033  -0.0021  -0.0005   0.0076   0.0180
  72 O   :3d2+  -0.0011   0.0030  -0.0009   0.0007  -0.0012  -0.0053  -0.0108
  73 O   :3d0    0.0398  -0.0122   0.0627  -0.0086  -0.0802   0.0081  -0.0767
  74 O   :3d1+  -0.0021   0.0050  -0.0001   0.0112  -0.0067  -0.0067  -0.0220
  75 O   :3d2+  -0.0792   0.0560  -0.1040   0.0371   0.1028  -0.0282   0.0368
  76 H   :1s    -0.0341   0.0507  -0.0075  -0.0367  -0.0458   0.0042  -0.0076
  77 H   :1s     2.0144   2.8023  -0.6108  -2.1164  -1.7298   0.8291  -0.3205
  78 H   :1s    -6.3737   4.5367   2.9233  -0.1503  -3.0319   1.8815   4.0764
  81 H   :2px    0.5071   0.3914  -0.1666  -0.2784  -0.0395  -0.3380  -0.1627
  82 H   :2pz   -0.0695  -0.1399  -0.0033   0.3679   0.5332  -0.6733   0.3928
  83 H   :1s    -0.0075  -0.0257  -0.0034  -0.0712   0.0403  -0.0220   0.0038
  84 H   :1s     0.7187   1.3958   0.3034  -1.8148   2.8709   0.5005  -0.0668
  85 H   :1s     0.1566  -4.7816  -3.2827  -5.8238   3.5488  -0.9052  -2.3050
  88 H   :2px    0.1048   0.2651  -0.0097  -0.2396   0.2167   0.6562  -0.1923
  89 H   :2pz    0.2019   0.1966   0.3012  -0.1445   0.1835  -1.0042   0.3113
  90 H   :2px    0.0003   0.0054  -0.0065   0.0032  -0.0048   0.0120   0.0050
  91 H   :2px   -0.1314   0.1680   0.5406   0.1023   0.3815   1.3165  -0.3261

 Molecular orbitals for symmetry species 3  (B2 )
 ------------------------------------------------

    Orbital         1        2        3        4        5        6        7
   1 C   :2py    0.3468   0.4226   0.0983  -0.3409  -0.1153  -0.3586   0.2005
   2 C   :2py   -0.0751  -0.0063   0.0395   0.0296  -0.0509  -0.1090   0.0684
   4 C   :2py   -0.0645   0.0113  -0.0060   0.0084   0.6337  -4.3247  -1.1632
   5 C   :3d1-   0.0039  -0.0345  -0.0033  -0.0144  -0.0063  -0.0053   0.0052
   6 C   :3d1-  -0.0803   0.0431   0.0161   0.0671  -0.2339  -0.1059  -0.0683
   7 C   :2py    0.2547   0.3037   0.0614  -0.0568  -0.0401   0.1238  -0.1197
   8 C   :2py   -0.0588   0.0188  -0.0159   0.0177  -0.1662  -0.0223  -0.1167
  10 C   :2py    0.0251   0.0453   0.0200  -0.0298   0.4541   2.6645   0.4982
  11 C   :3d2-   0.0136   0.0168   0.0037  -0.0112  -0.0034  -0.0201   0.0091
  12 C   :3d1-  -0.0043   0.0113   0.0016  -0.0195   0.0013  -0.0138   0.0087
  13 C   :3d2-  -0.0236   0.0164  -0.0063   0.0189  -0.1210  -0.0683  -0.0458
  14 C   :3d1-   0.0322  -0.0058   0.0067  -0.0286   0.0770   0.0480   0.0651
  15 C   :2py    0.2705  -0.0375   0.0075   0.3084  -0.0111   0.0789  -0.1660
  16 C   :2py    0.0079  -0.0325   0.0102  -0.0265   0.0828   0.0555  -0.0582
  18 C   :2py   -0.0009  -0.0383  -0.0174   0.0345  -0.6698  -0.2693  -0.3970
  19 C   :3d2-   0.0119  -0.0061  -0.0004   0.0171   0.0013  -0.0175   0.0052
  20 C   :3d1-   0.0051   0.0157   0.0027  -0.0111   0.0027   0.0175  -0.0141
  21 C   :3d2-   0.0024  -0.0020   0.0092   0.0017   0.0570   0.0429   0.0118
  22 C   :3d1-   0.0065  -0.0038   0.0066  -0.0094   0.0272   0.0038   0.0362
  23 C   :2py    0.2870  -0.1731  -0.0107   0.4400   0.0175  -0.2734   0.0556
  24 C   :2py   -0.0261  -0.0104  -0.0155  -0.0081  -0.0807  -0.1724  -0.1040
  26 C   :2py    0.0179  -0.0018   0.0109   0.0090   0.5131  -0.3758   1.7331
  27 C   :3d1-   0.0133  -0.0019   0.0002   0.0143   0.0031   0.0068  -0.0126
  28 C   :3d1-  -0.0070   0.0041  -0.0083   0.0096  -0.0806  -0.0431  -0.0541
  29 N   :2py    0.4769  -0.7148  -0.2415  -0.4816  -0.0828   0.1054  -0.0858
  30 N   :2py    0.0149  -0.0951   0.1150  -0.0167  -0.0565   0.0603  -0.0094
  32 N   :2py    0.0723  -0.0857  -0.0409  -0.0376  -0.5243   1.4509   0.7932
  33 N   :3d1-   0.0048  -0.0187  -0.0382  -0.0015  -0.0007   0.0174  -0.0074
  34 N   :3d1-  -0.0555  -0.0217   0.0713   0.0456  -0.1928   0.0006  -0.0273
  35 O   :2py   -0.0602   0.2536  -0.6384   0.0988  -0.1092   0.0104   0.0374
  36 O   :2py    0.0009   0.0240   0.0515  -0.0008   0.0053   0.0158   0.0294
  38 O   :2py   -0.0192   0.0360   0.0162   0.0121   0.5772  -0.4047  -0.2642
  39 O   :3d2-   0.0018  -0.0119   0.0415  -0.0042   0.0150  -0.0033  -0.0025
  40 O   :3d1-  -0.0100   0.0164   0.0100   0.0097   0.0107  -0.0071   0.0008
  41 O   :3d2-  -0.0020  -0.0077   0.0238  -0.0002  -0.0172   0.0032   0.0004
  42 O   :3d1-  -0.0154   0.0111   0.0240   0.0124  -0.0400  -0.0051   0.0067
  43 H   :2py    0.0059   0.0078   0.0013  -0.0012   0.0014   0.0134  -0.0018
  44 H   :2py   -0.0178   0.0123  -0.0024   0.0119  -0.0849  -0.1061  -0.0776
  46 H   :2py   -0.0002  -0.0015   0.0049   0.0069   0.0616   0.0019  -0.0273
  47 H   :2py    0.0068  -0.0046  -0.0004   0.0112  -0.0006  -0.0100   0.0163
  48 H   :2py   -0.0026  -0.0017  -0.0031   0.0100  -0.0326  -0.0237  -0.0854

    Orbital         8        9       10       11       12       13       14
   1 C   :2py    0.0974   0.0423  -0.3926   0.0678   0.3650   0.1131  -0.1255
   2 C   :2py    0.1206   0.1958  -0.0407   0.1281   0.7271   0.3452   0.7317
   4 C   :2py   -4.8567  -9.8975   1.7441   2.7434  -4.1398   4.6277  -4.3744
   5 C   :3d1-   0.0055   0.0050  -0.0118  -0.0161   0.0163   0.0053  -0.0235
   6 C   :3d1-  -0.1415  -0.1721  -0.0327   0.6366  -0.4311   0.4806  -1.2134
   7 C   :2py   -0.0917   0.0538   0.2286  -0.0220  -0.2998  -0.0403   0.2376
   8 C   :2py   -0.1566  -0.0414  -0.0301   0.2113  -0.5035   0.1009   0.1755
  10 C   :2py    5.0102   6.1114   0.2356   1.1822   3.4922  -1.5991   2.6003
  11 C   :3d2-   0.0050  -0.0079  -0.0107   0.0031   0.0264  -0.0040   0.0319
  12 C   :3d1-   0.0134   0.0008  -0.0109  -0.0094  -0.0153   0.0128  -0.0233
  13 C   :3d2-  -0.1421  -0.0973  -0.0695   0.2232  -0.4132  -0.0561  -0.9850
  14 C   :3d1-   0.0707   0.1041  -0.0030  -0.0834   0.1336  -0.2116   0.2212
  15 C   :2py   -0.0931  -0.0162   0.1058  -0.0259   0.3431  -0.0157  -0.0732
  16 C   :2py    0.1428   0.1315   0.0713  -0.1398   0.4961  -0.4427   0.1243
  18 C   :2py   -4.9061  -4.1290  -3.2473  -2.1238  -3.2908  -0.0540  -0.5213
  19 C   :3d2-   0.0105  -0.0054  -0.0058   0.0039  -0.0232  -0.0310  -0.0084
  20 C   :3d1-  -0.0065  -0.0036   0.0120  -0.0002  -0.0071  -0.0165   0.0292
  21 C   :3d2-   0.1845   0.1548   0.0015  -0.0418   0.3538   0.1375   0.3742
  22 C   :3d1-   0.0386   0.0828   0.1443  -0.0332   0.1681  -0.1437  -0.1454
  23 C   :2py    0.2738   0.0261  -0.3037  -0.0058  -0.3813  -0.0676  -0.0962
  24 C   :2py   -0.0719  -0.1812  -0.0433   0.1124  -0.5957  -0.5144  -1.2017
  26 C   :2py    4.3565   4.2645   4.6838   1.7152   3.3745  -0.5634  -0.5311
  27 C   :3d1-  -0.0023  -0.0066   0.0025   0.0050   0.0244  -0.0389  -0.0456
  28 C   :3d1-  -0.1818  -0.1538  -0.0916   0.0199  -0.3547   0.1185   0.4011
  29 N   :2py   -0.0908   0.0172   0.1188   0.2109  -0.1025   0.0190   0.1034
  30 N   :2py    0.0650  -0.0966   0.0915   0.0147   0.0350  -0.1213   0.2392
  32 N   :2py    1.1709   2.1586  -0.8676  -6.0435   1.1838  -3.0675   2.2468
  33 N   :3d1-  -0.0021  -0.0019   0.0170  -0.0045  -0.0135  -0.0122   0.0288
  34 N   :3d1-  -0.0033  -0.0844   0.0590   0.2295  -0.0925   0.1099  -0.2245
  35 O   :2py    0.0763  -0.0627  -0.0141  -0.0162   0.0248   0.0293  -0.0286
  36 O   :2py    0.0441  -0.0126  -0.0211  -0.1493   0.0298  -0.0347   0.0295
  38 O   :2py   -0.5466   0.1484   0.0373   1.6101  -0.2215   0.5629  -0.3827
  41 O   :3d2-   0.0090  -0.0077   0.0053  -0.0015  -0.0049  -0.0020  -0.0324
  42 O   :3d1-   0.0102  -0.0151  -0.0047   0.0262   0.0077   0.0199  -0.0397
  43 H   :2py    0.0073   0.0059   0.0031   0.0055  -0.0092  -0.0062   0.0108
  44 H   :2py   -0.2355  -0.1455   0.0809   0.0379  -0.6462   0.3663  -1.6129
  45 H   :2py   -0.0114  -0.0023  -0.0050  -0.0044   0.0113  -0.0123  -0.0001
  46 H   :2py    0.1738   0.1631   0.1732  -0.0034   0.4999   0.8309   0.0852
  47 H   :2py    0.0094   0.0081   0.0044   0.0016  -0.0108  -0.0147  -0.0119
  48 H   :2py   -0.1212  -0.1458  -0.3059  -0.0716  -0.4886   0.9759   1.4761

 Molecular orbitals for symmetry species 4  (A2 )
 ------------------------------------------------

    Orbital         1        2        3        4        5        6        7
   1 C   :3d2-  -0.0058  -0.0410   0.0447  -0.0009   0.0040  -0.0076   0.0258
   2 C   :3d2-   0.0439  -0.0200   0.0267  -0.1711   0.0459  -0.0526  -0.5796
   3 C   :2py    0.0492   0.4526  -0.3648   0.1658  -0.0837   0.0756  -0.1454
   4 C   :2py    0.0497   0.0025  -0.0881  -0.0003   0.0591   0.0463  -1.0387
   6 C   :2py    0.0445   0.0616  -0.4920  -1.2479   1.3763  -2.6670  -0.7711
   7 C   :3d2-   0.0007   0.0032  -0.0018   0.0084   0.0022   0.0021  -0.0378
   8 C   :3d1-   0.0027  -0.0132  -0.0259  -0.0004  -0.0017   0.0018   0.0247
   9 C   :3d2-   0.0147   0.0016  -0.0115  -0.0353  -0.0354   0.0299   0.2152
  10 C   :3d1-   0.0073   0.0129  -0.0491  -0.0337  -0.0559   0.0145  -0.3764
  11 C   :2py   -0.0251   0.3723   0.4632   0.0127   0.1749  -0.0633  -0.0522
  12 C   :2py   -0.0159   0.0048   0.0945   0.0460   0.0117   0.0085  -0.6896
  14 C   :2py   -0.0389   0.0098   0.4693  -0.0198  -2.2040   2.2092  -0.2378
  15 C   :3d2-  -0.0001   0.0015   0.0027   0.0061   0.0043   0.0002  -0.0227
  16 C   :3d1-   0.0024   0.0184  -0.0195   0.0039   0.0003  -0.0031  -0.0265
  17 C   :3d2-  -0.0053   0.0021   0.0064  -0.0186   0.0276  -0.0253  -0.0133
  18 C   :3d1-  -0.0044   0.0041  -0.0306   0.0452  -0.0232   0.0121   0.3043
  19 C   :3d2-   0.0024  -0.0284  -0.0436   0.0067  -0.0024  -0.0013   0.0086
  20 C   :3d2-   0.0029  -0.0075  -0.0157  -0.0375  -0.1040   0.0529  -0.4949
  21 N   :3d2-   0.0248  -0.0025   0.0059   0.0033  -0.0049  -0.0089  -0.0029
  22 N   :3d2-  -0.0311  -0.0031   0.0187   0.0021   0.0295   0.0630  -0.0296
  23 O   :2py    0.8167  -0.0223   0.0476  -0.0625   0.0756   0.1118   0.0137
  24 O   :2py    0.0911  -0.0021  -0.0085  -0.0553   0.0563   0.0903   0.0148
  26 O   :2py    0.0143  -0.0163   0.0635   0.6654  -0.9853  -2.2072   0.1592
  28 O   :3d1-  -0.0105   0.0004  -0.0012   0.0010  -0.0020  -0.0047   0.0001
  29 O   :3d2-  -0.0296   0.0001   0.0008  -0.0022   0.0065   0.0166  -0.0222
  30 O   :3d1-  -0.0221   0.0015  -0.0016  -0.0015   0.0063   0.0174   0.0253
  31 H   :2py    0.0016   0.0125  -0.0128  -0.0067   0.0006  -0.0068  -0.0141
  32 H   :2py    0.0029   0.0110  -0.0274   0.1003  -0.1026   0.1398   1.3877
  33 H   :2py   -0.0010   0.0098   0.0147  -0.0057  -0.0077   0.0042  -0.0092
  34 H   :2py   -0.0046   0.0075   0.0185   0.0123   0.1745  -0.1059   0.8202

    Orbital         8        9       10       11       12       13
   1 C   :3d2-   0.0232  -0.0182   0.0409   0.0606  -0.0231   0.0880
   2 C   :3d2-   0.3715   0.0907  -0.7929  -0.8425  -0.9857  -1.9645
   3 C   :2py   -0.1519  -0.0830  -0.2372  -0.2633   0.3773  -0.3119
   4 C   :2py   -0.1322   0.0712  -1.4133   0.6588  -0.8621  -0.9965
   6 C   :2py   -1.5310   0.5721  -0.4077   0.0639   0.0956   0.3891
   7 C   :3d2-  -0.0322   0.0139   0.0151   0.0147  -0.0075   0.0326
   8 C   :3d1-  -0.0030  -0.0089  -0.0277   0.0297   0.0219  -0.0272
   9 C   :3d2-   0.8789   0.0773  -0.7339  -1.1372   0.7135  -2.3721
  10 C   :3d1-  -0.0629   0.9715   0.6010  -0.2669  -2.0252  -0.4047
  11 C   :2py    0.1880   0.0157   0.1591  -0.3808  -0.1364   0.2189
  12 C   :2py    0.7289   0.3967   1.3826  -0.2304  -2.2270  -1.9321
  14 C   :2py    1.7446  -0.4470   0.4446  -0.0630  -0.1576  -0.5683
  15 C   :3d2-   0.0453  -0.0058  -0.0064   0.0235   0.0151  -0.0134
  16 C   :3d1-   0.0097  -0.0107  -0.0229  -0.0125   0.0388  -0.0406
  17 C   :3d2-  -0.7829   0.1954   0.1753  -1.1903  -0.6685   2.2876
  18 C   :3d1-  -0.4153   0.2043   1.0088  -0.4248  -0.1779   1.2523
  19 C   :3d2-  -0.0345   0.0008  -0.0170   0.0686   0.0381  -0.0245
  20 C   :3d2-   0.0285  -0.3609   0.8189  -1.1581  -1.3532  -1.2983
  21 N   :3d2-   0.0035  -0.0084  -0.0139  -0.0067  -0.0115  -0.0121
  22 N   :3d2-  -0.1740  -0.4617  -0.2926  -0.0526  -0.6463   0.1935
  23 O   :2py    0.0199   0.0591   0.1046   0.0497   0.1823   0.0334
  24 O   :2py    0.0917   0.1517   0.0477  -0.0470   0.1661  -0.1825
  26 O   :2py   -0.0453   0.5557   0.0756  -0.0990   0.2331  -0.0122
  28 O   :3d1-   0.0023   0.0071   0.0043   0.0021   0.0117  -0.0021
  29 O   :3d2-  -0.0364  -0.0427  -0.0377   0.0129  -0.1304   0.0572
  30 O   :3d1-  -0.0075   0.0235   0.0732   0.0104   0.1840   0.0820
  31 H   :2py   -0.0105  -0.0047  -0.0099   0.0143  -0.0021  -0.0014
  32 H   :2py    1.3029  -0.6167  -0.5373  -1.0859   1.2201  -1.2114
  33 H   :2py    0.0121  -0.0006   0.0103   0.0068  -0.0126  -0.0204
  34 H   :2py   -1.7725   0.3204   0.1396  -1.2699  -0.1667   2.0681

 Printout of CI-coefficients abs greater than 0.10000 for root  2
 *** NOTE: this root is the reference state ***


  Printout of coefficients in interval   0.3162E+00 to  0.1000E+01
  ==============================================================

 Coefficient of determinant        48 is      0.99768444  9.97684441E-01
 alpha-string:  1     3  4  5  6  7
  beta-string:  1     3  4     6


  Printout of coefficients in interval   0.1000E+00 to  0.3162E+00
  ==============================================================
   ( no coefficients )

 Norm of printed part of CI vector ..      0.99537424

  Magnitude of CI coefficients
  ============================

  ( Ranges are relative to norm of vector :  1.00E+00 )

  10- 1 to 10- 0         1    0.99537424E+00    0.99537424E+00
  10- 2 to 10- 1         3    0.44462393E-02    0.99982048E+00
  10- 3 to 10- 2         7    0.17747838E-03    0.99999796E+00
  10- 4 to 10- 3        18    0.20014060E-05    0.99999996E+00
  10- 5 to 10- 4        18    0.36709914E-07    0.10000000E+01
  10- 6 to 10- 5         8    0.16553749E-09    0.10000000E+01
  10- 7 to 10- 6         1    0.14061301E-12    0.10000000E+01
  Number of coefficients less than 10^-11 times norm is             0

  Total CPU  time used in SIRIUS :   7 hours 50 minutes  9 seconds
  Total wall time used in SIRIUS :   7 hours 50 minutes 16 seconds

 
     Date and time (Linux)  : Mon Jan 20 21:11:02 2020
     Host name              : Lab2-333-NPs                            

 NOTE:    2 warnings have been issued.
 Check output, result, and error files for "WARNING".


                     .---------------------------------------.
                     | End of Wave Function Section (SIRIUS) |
                     `---------------------------------------'


@ - DALTON aborted because wave function not converged!

  --- SEVERE ERROR, PROGRAM WILL BE ABORTED ---
     Date and time (Linux)  : Mon Jan 20 21:11:02 2020
     Host name              : Lab2-333-NPs                            

 Reason: DALTON aborted because wave function not converged

  Total CPU  time used in DALTON:   7 hours 50 minutes  9 seconds
  Total wall time used in DALTON:   7 hours 50 minutes 16 seconds


 QTRACE dump of internal trace stack

 ========================
      level    module
 ========================
          3    SIRIUS      
          2    DALTON      
          1    DALTON main 
 ========================

