

     ************************************************************************
     *************** Dalton - An Electronic Structure Program ***************
     ************************************************************************

    This is output from DALTON release Dalton2018.1 (2019)
         ( Web site: http://daltonprogram.org )

   ----------------------------------------------------------------------------

    NOTE:
     
    Dalton is an experimental code for the evaluation of molecular
    properties using (MC)SCF, DFT, CI, and CC wave functions.
    The authors accept no responsibility for the performance of
    the code or for the correctness of the results.
     
    The code (in whole or part) is provided under a licence and
    is not to be reproduced for further distribution without
    the written permission of the authors or their representatives.
     
    See the home page "http://daltonprogram.org" for further information.
     
    If results obtained with this code are published,
    the appropriate citations would be both of:
     
       K. Aidas, C. Angeli, K. L. Bak, V. Bakken, R. Bast,
       L. Boman, O. Christiansen, R. Cimiraglia, S. Coriani,
       P. Dahle, E. K. Dalskov, U. Ekstroem,
       T. Enevoldsen, J. J. Eriksen, P. Ettenhuber, B. Fernandez,
       L. Ferrighi, H. Fliegl, L. Frediani, K. Hald, A. Halkier,
       C. Haettig, H. Heiberg, T. Helgaker, A. C. Hennum,
       H. Hettema, E. Hjertenaes, S. Hoest, I.-M. Hoeyvik,
       M. F. Iozzi, B. Jansik, H. J. Aa. Jensen, D. Jonsson,
       P. Joergensen, J. Kauczor, S. Kirpekar,
       T. Kjaergaard, W. Klopper, S. Knecht, R. Kobayashi, H. Koch,
       J. Kongsted, A. Krapp, K. Kristensen, A. Ligabue,
       O. B. Lutnaes, J. I. Melo, K. V. Mikkelsen, R. H. Myhre,
       C. Neiss, C. B. Nielsen, P. Norman, J. Olsen,
       J. M. H. Olsen, A. Osted, M. J. Packer, F. Pawlowski,
       T. B. Pedersen, P. F. Provasi, S. Reine, Z. Rinkevicius,
       T. A. Ruden, K. Ruud, V. Rybkin, P. Salek, C. C. M. Samson,
       A. Sanchez de Meras, T. Saue, S. P. A. Sauer,
       B. Schimmelpfennig, K. Sneskov, A. H. Steindal,
       K. O. Sylvester-Hvid, P. R. Taylor, A. M. Teale,
       E. I. Tellgren, D. P. Tew, A. J. Thorvaldsen, L. Thoegersen,
       O. Vahtras, M. A. Watson, D. J. D. Wilson, M. Ziolkowski
       and H. Agren,
       "The Dalton quantum chemistry program system",
       WIREs Comput. Mol. Sci. 2014, 4:269–284 (doi: 10.1002/wcms.1172)
     
    and
     
       Dalton, a molecular electronic structure program,
       Release Dalton2018.1 (2019), see http://daltonprogram.org
   ----------------------------------------------------------------------------

    Authors in alphabetical order (major contribution(s) in parenthesis):

  Kestutis Aidas,           Vilnius University,           Lithuania   (QM/MM)
  Celestino Angeli,         University of Ferrara,        Italy       (NEVPT2)
  Keld L. Bak,              UNI-C,                        Denmark     (AOSOPPA, non-adiabatic coupling, magnetic properties)
  Vebjoern Bakken,          University of Oslo,           Norway      (DALTON; geometry optimizer, symmetry detection)
  Radovan Bast,             UiT The Arctic U. of Norway,  Norway      (DALTON installation and execution frameworks)
  Pablo Baudin,             University of Valencia,       Spain       (Cholesky excitation energies)
  Linus Boman,              NTNU,                         Norway      (Cholesky decomposition and subsystems)
  Ove Christiansen,         Aarhus University,            Denmark     (CC module)
  Renzo Cimiraglia,         University of Ferrara,        Italy       (NEVPT2)
  Sonia Coriani,            Technical Univ. of Denmark,   Denmark     (CC module, MCD in RESPONS)
  Janusz Cukras,            University of Trieste,        Italy       (MChD in RESPONS)
  Paal Dahle,               University of Oslo,           Norway      (Parallelization)
  Erik K. Dalskov,          UNI-C,                        Denmark     (SOPPA)
  Thomas Enevoldsen,        Univ. of Southern Denmark,    Denmark     (SOPPA)
  Janus J. Eriksen,         Aarhus University,            Denmark     (Polarizable embedding model, TDA)
  Rasmus Faber,             University of Copenhagen,     Denmark     (Vib.avg. NMR with SOPPA, parallel AO-SOPPA)
  Tobias Fahleson,          KTH Stockholm,                Sweden      (Damped cubic response)
  Berta Fernandez,          U. of Santiago de Compostela, Spain       (doublet spin, ESR in RESPONS)
  Lara Ferrighi,            Aarhus University,            Denmark     (PCM Cubic response)
  Heike Fliegl,             University of Oslo,           Norway      (CCSD(R12))
  Luca Frediani,            UiT The Arctic U. of Norway,  Norway      (PCM)
  Bin Gao,                  UiT The Arctic U. of Norway,  Norway      (Gen1Int library)
  Christof Haettig,         Ruhr-University Bochum,       Germany     (CC module)
  Kasper Hald,              Aarhus University,            Denmark     (CC module)
  Asger Halkier,            Aarhus University,            Denmark     (CC module)
  Frederik Beyer Hansen,    University of Copenhagen,     Denmark     (Parallel AO-SOPPA)
  Erik D. Hedegaard,        Univ. of Southern Denmark,    Denmark     (Polarizable embedding model, QM/MM)
  Hanne Heiberg,            University of Oslo,           Norway      (geometry analysis, selected one-electron integrals)
  Trygve Helgaker,          University of Oslo,           Norway      (DALTON; ABACUS, ERI, DFT modules, London, and much more)
  Alf Christian Hennum,     University of Oslo,           Norway      (Parity violation)
  Hinne Hettema,            University of Auckland,       New Zealand (quadratic response in RESPONS; SIRIUS supersymmetry)
  Eirik Hjertenaes,         NTNU,                         Norway      (Cholesky decomposition)
  Pi A. B. Haase,           University of Copenhagen,     Denmark     (Triplet AO-SOPPA)
  Maria Francesca Iozzi,    University of Oslo,           Norway      (RPA)
  Christoph Jacob           TU Braunschweig               Germany     (Frozen density embedding model)
  Brano Jansik              Technical Univ. of Ostrava    Czech Rep.  (DFT cubic response)
  Hans Joergen Aa. Jensen,  Univ. of Southern Denmark,    Denmark     (DALTON; SIRIUS, RESPONS, ABACUS modules, London, and much more)
  Dan Jonsson,              UiT The Arctic U. of Norway,  Norway      (cubic response in RESPONS module)
  Poul Joergensen,          Aarhus University,            Denmark     (RESPONS, ABACUS, and CC modules)
  Maciej Kaminski,          University of Warsaw,         Poland      (CPPh in RESPONS)
  Joanna Kauczor,           Linkoeping University,        Sweden      (Complex polarization propagator (CPP) module)
  Sheela Kirpekar,          Univ. of Southern Denmark,    Denmark     (Mass-velocity & Darwin integrals)
  Wim Klopper,              KIT Karlsruhe,                Germany     (R12 code in CC, SIRIUS, and ABACUS modules)
  Stefan Knecht,            ETH Zurich,                   Switzerland (Parallel CI and MCSCF)
  Rika Kobayashi,           Australian National Univ.,    Australia   (DIIS in CC, London in MCSCF)
  Henrik Koch,              NTNU,                         Norway      (CC module, Cholesky decomposition)
  Jacob Kongsted,           Univ. of Southern Denmark,    Denmark     (Polarizable embedding model, QM/MM)
  Andrea Ligabue,           University of Modena,         Italy       (CTOCD, AOSOPPA)
  Nanna H. List             Univ. of Southern Denmark,    Denmark     (Polarizable embedding model)
  Ola B. Lutnaes,           University of Oslo,           Norway      (DFT Hessian)
  Juan I. Melo,             University of Buenos Aires,   Argentina   (LRESC, Relativistic Effects on NMR Shieldings)
  Kurt V. Mikkelsen,        University of Copenhagen,     Denmark     (MC-SCRF and QM/MM)
  Rolf H. Myhre,            NTNU,                         Norway      (Subsystems and CC3)
  Christian Neiss,          Univ. Erlangen-Nuernberg,     Germany     (CCSD(R12))
  Christian B. Nielsen,     University of Copenhagen,     Denmark     (QM/MM)
  Patrick Norman,           KTH Stockholm,                Sweden      (Cubic response and complex frequency response in RESPONS)
  Jeppe Olsen,              Aarhus University,            Denmark     (SIRIUS CI/density modules)
  Jogvan Magnus H. Olsen,   Univ. of Southern Denmark,    Denmark     (Polarizable embedding model, QM/MM)
  Anders Osted,             Copenhagen University,        Denmark     (QM/MM)
  Martin J. Packer,         University of Sheffield,      UK          (SOPPA)
  Filip Pawlowski,          Kazimierz Wielki University,  Poland      (CC3)
  Morten N. Pedersen,       Univ. of Southern Denmark,    Denmark     (Polarizable embedding model)
  Thomas B. Pedersen,       University of Oslo,           Norway      (Cholesky decomposition)
  Patricio F. Provasi,      University of Northeastern,   Argentina   (Analysis of coupling constants in localized orbitals)
  Zilvinas Rinkevicius,     KTH Stockholm,                Sweden      (open-shell DFT, ESR)
  Elias Rudberg,            KTH Stockholm,                Sweden      (DFT grid and basis info)
  Torgeir A. Ruden,         University of Oslo,           Norway      (Numerical derivatives in ABACUS)
  Kenneth Ruud,             UiT The Arctic U. of Norway,  Norway      (DALTON; ABACUS magnetic properties and much more)
  Pawel Salek,              KTH Stockholm,                Sweden      (DALTON; DFT code)
  Claire C. M. Samson       University of Karlsruhe       Germany     (Boys localization, r12 integrals in ERI)
  Alfredo Sanchez de Meras, University of Valencia,       Spain       (CC module, Cholesky decomposition)
  Trond Saue,               Paul Sabatier University,     France      (direct Fock matrix construction)
  Stephan P. A. Sauer,      University of Copenhagen,     Denmark     (SOPPA(CCSD), SOPPA prop., AOSOPPA, vibrational g-factors)
  Andre S. P. Gomes,        CNRS/Universite de Lille,     France      (Frozen density embedding model)
  Bernd Schimmelpfennig,    Forschungszentrum Karlsruhe,  Germany     (AMFI module)
  Kristian Sneskov,         Aarhus University,            Denmark     (Polarizable embedding model, QM/MM)
  Arnfinn H. Steindal,      UiT The Arctic U. of Norway,  Norway      (parallel QM/MM, Polarizable embedding model)
  Casper Steinmann,         Univ. of Southern Denmark,    Denmark     (QFIT, Polarizable embedding model)
  K. O. Sylvester-Hvid,     University of Copenhagen,     Denmark     (MC-SCRF)
  Peter R. Taylor,          VLSCI/Univ. of Melbourne,     Australia   (Symmetry handling ABACUS, integral transformation)
  Andrew M. Teale,          University of Nottingham,     England     (DFT-AC, DFT-D)
  David P. Tew,             University of Bristol,        England     (CCSD(R12))
  Olav Vahtras,             KTH Stockholm,                Sweden      (triplet response, spin-orbit, ESR, TDDFT, open-shell DFT)
  Lucas Visscher,           Vrije Universiteit Amsterdam, Netherlands (Frozen density embedding model)
  David J. Wilson,          La Trobe University,          Australia   (DFT Hessian and DFT magnetizabilities)
  Hans Agren,               KTH Stockholm,                Sweden      (SIRIUS module, RESPONS, MC-SCRF solvation model)
 --------------------------------------------------------------------------------

     Date and time (Linux)  : Fri Jan 10 15:59:14 2020
     Host name              : Lab2-333-NPs                            

 * Work memory size             :  1024000000 =  7.629 gigabytes.

 * Directories for basis set searches:
   1) /home/lab333/dalton/build_2018_atlas
   2) /home/lab333/dalton/build_2018_atlas/basis


Compilation information
-----------------------

 Who compiled             | lab333
 Host                     | Lab2-333-NPs
 System                   | Linux-4.4.0-43-Microsoft
 CMake generator          | Unix Makefiles
 Processor                | x86_64
 64-bit integers          | OFF
 MPI                      | OFF
 Fortran compiler         | /usr/bin/gfortran
 Fortran compiler version | GNU Fortran (Ubuntu 7.3.0-27ubuntu1~18.04) 7.3.0
 C compiler               | /usr/bin/gcc
 C compiler version       | gcc (Ubuntu 7.3.0-27ubuntu1~18.04) 7.3.0
 C++ compiler             | /usr/bin/g++
 C++ compiler version     | g++ (Ubuntu 7.3.0-27ubuntu1~18.04) 7.3.0
 BLAS                     | /usr/lib/x86_64-linux-gnu/libf77blas.so;/usr/lib/x
                          | 86_64-linux-gnu/libcblas.so;/usr/lib/x86_64-linux-
                          | gnu/libatlas.so
 LAPACK                   | /usr/lib/x86_64-linux-gnu/libatlas.so;/usr/lib/x86
                          | _64-linux-gnu/atlas/liblapack.so
 Static linking           | OFF
 Last Git revision        | da625bf48c74028e805616daee31bc5d76b3a20d
 Git branch               | (HEAD detached at Dalton2018.1)
 Configuration time       | 2019-01-18 10:20:51.437510


   Content of the .dal input file
 ----------------------------------

**DALTON INPUT
.RUN RESPONSE
.DIRECT
**WAVE FUNCTIONS
.HF
.MP2
.MCSCF
*CONFIGURATION INPUT
.SPIN MULTIPLICITY
1
.SYMMETRY
1
.INACTIVE ORBITALS
15 10 2 0
.CAS SPACE
1 1 2 3
.ELECTRONS
10
*ORBITAL INPUT
.MOSTART
.HUCKEL
*OPTIMIZATION
.DETERMINANTS
.STATE
1
*CI VECTOR
.PLUS COMBINATIONS
**RESPONSE
*CUBIC
.DIPLEN
.BFREQ
1
0.0584
.CFREQ
1
-0.0584
.DFREQ
1
0.0584
**END OF DALTON INPUT


   Content of the .mol file
 ----------------------------

BASIS
aug-cc-pCVDZ
 nitrobenzene
 Generated by the Dalton Input File Plugin for Avogadro
Atomtypes=4 Angstrom Generators=2 X Y
Charge=6.0 Atoms=4
C        0.0000000000            0.0000000000           -0.0265759623
C       -1.2190534920            0.0000000000           -0.6979856948
C       -1.2105095870            0.0000000000           -2.0897394457
C        0.0000000000            0.0000000000           -2.7841484631
Charge=7.0 Atoms=1
N        0.0000000000            0.0000000000            1.4549291696
Charge=8.0 Atoms=1
O       0.4849137089925772            0.0            2.579608474431794
Charge=1.0 Atoms=3
H       -2.1410602955            0.0000000000           -0.1327964319
H       -2.1492827751            0.0000000000           -2.6311811056
H        0.0000000000            0.0000000000           -3.8683953478


       *******************************************************************
       *********** Output from DALTON general input processing ***********
       *******************************************************************

 --------------------------------------------------------------------------------
   Overall default print level:    0
   Print level for DALTON.STAT:    1

    AO-direct calculation (in sections where implemented)
    HERMIT 1- and 2-electron integral sections will be executed
    "Old" integral transformation used (limited to max 255 basis functions)
    Wave function sections will be executed (SIRIUS module)
    Dynamic molecular response properties section will be executed (RESPONSE module)
 --------------------------------------------------------------------------------


   ****************************************************************************
   *************** Output of molecule and basis set information ***************
   ****************************************************************************


    The two title cards from your ".mol" input:
    ------------------------------------------------------------------------
 1:  nitrobenzene                                                           
 2:  Generated by the Dalton Input File Plugin for Avogadro                 
    ------------------------------------------------------------------------

  Coordinates are entered in Angstrom and converted to atomic units.
          - Conversion factor : 1 bohr = 0.52917721 A

  Atomic type no.    1
  --------------------
  Nuclear charge:   6.00000
  Number of symmetry independent centers:    4
  Number of basis sets to read;    2
  Basis set file used for this atomic type with Z =   6 :
     "/home/lab333/dalton/build_2018_atlas/basis/aug-cc-pCVDZ"

  Atomic type no.    2
  --------------------
  Nuclear charge:   7.00000
  Number of symmetry independent centers:    1
  Number of basis sets to read;    2
  Basis set file used for this atomic type with Z =   7 :
     "/home/lab333/dalton/build_2018_atlas/basis/aug-cc-pCVDZ"

  Atomic type no.    3
  --------------------
  Nuclear charge:   8.00000
  Number of symmetry independent centers:    1
  Number of basis sets to read;    2
  Basis set file used for this atomic type with Z =   8 :
     "/home/lab333/dalton/build_2018_atlas/basis/aug-cc-pCVDZ"

  Atomic type no.    4
  --------------------
  Nuclear charge:   1.00000
  Number of symmetry independent centers:    3
  Number of basis sets to read;    2
  Basis set file used for this atomic type with Z =   1 :
     "/home/lab333/dalton/build_2018_atlas/basis/aug-cc-pCVDZ"


                         SYMGRP: Point group information
                         -------------------------------

@    Point group: C2v

@  * The irrep name for each symmetry:    1: A1     2: B1     3: B2     4: A2 

   * The point group was generated by:

      Reflection in the yz-plane
      Reflection in the xz-plane

   * Group multiplication table

        |  E   C2z  Oxz  Oyz
   -----+--------------------
     E  |  E   C2z  Oxz  Oyz
    C2z | C2z   E   Oyz  Oxz
    Oxz | Oxz  Oyz   E   C2z
    Oyz | Oyz  Oxz  C2z   E 

   * Character table

        |  E   C2z  Oxz  Oyz
   -----+--------------------
    A1  |   1    1    1    1
    B1  |   1   -1    1   -1
    B2  |   1   -1   -1    1
    A2  |   1    1   -1   -1

   * Direct product table

        | A1   B1   B2   A2 
   -----+--------------------
    A1  | A1   B1   B2   A2 
    B1  | B1   A1   A2   B2 
    B2  | B2   A2   A1   B1 
    A2  | A2   B2   B1   A1 


                                 Isotopic Masses
                                 ---------------

                           C          12.000000
                           C   _1     12.000000
                           C   _2     12.000000
                           C   _1     12.000000
                           C   _2     12.000000
                           C          12.000000
                           N          14.003074
                           O   _1     15.994915
                           O   _2     15.994915
                           H   _1      1.007825
                           H   _2      1.007825
                           H   _1      1.007825
                           H   _2      1.007825
                           H           1.007825

                       Total mass:   123.032029 amu
                       Natural abundance:  92.716 %

 Center-of-mass coordinates (a.u.):    0.000000    0.000000   -0.110731


  Atoms and basis sets
  --------------------

  Number of atom types :    4
  Total number of atoms:   14

  Basis set used is "aug-cc-pCVDZ" from the basis set library.

  label    atoms   charge   prim   cont     basis
  ----------------------------------------------------------------------
  C           6    6.0000    39    27      [11s6p2d|5s4p2d]                                   
  N           1    7.0000    39    27      [11s6p2d|5s4p2d]                                   
  O           2    8.0000    39    27      [11s6p2d|5s4p2d]                                   
  H           5    1.0000    11     9      [5s2p|3s2p]                                        
  ----------------------------------------------------------------------
  total:     14   64.0000   406   288
  ----------------------------------------------------------------------
  Spherical harmonic basis used.

  Threshold for neglecting AO integrals:  1.00D-12


  Symmetry Coordinates
  --------------------

  Number of coordinates in each symmetry:    14   14    9    5


   Interatomic separations (in Angstrom):
   --------------------------------------

            C           C   _1      C   _2      C   _1      C   _2      C     
            ------      ------      ------      ------      ------      ------
 C     :    0.000000
 C   _1:    1.391719    0.000000
 C   _2:    1.391719    2.438107    0.000000
 C   _1:    2.392065    1.391780    2.799956    0.000000
 C   _2:    2.392065    2.799956    1.391780    2.421019    0.000000
 C     :    2.757573    2.416230    2.416230    1.395542    1.395542    0.000000
 N     :    1.481505    2.474093    2.474093    3.745665    3.745665    4.239078
 O   _1:    2.650913    3.694067    3.358807    4.967622    4.725389    5.385632
 O   _2:    2.650913    3.358807    3.694067    4.725389    4.967622    5.385632
 H   _1:    2.143694    1.081451    3.407316    2.166922    3.881063    3.407904
 H   _2:    2.143694    3.407316    1.081451    3.881063    2.166922    3.407904
 H   _1:    3.376890    2.145360    3.883675    1.083722    3.403140    2.154719
 H   _2:    3.376890    3.883675    2.145360    3.403140    1.083722    2.154719
 H     :    3.841819    3.396703    3.396703    2.151500    2.151500    1.084247

            N           O   _1      O   _2      H   _1      H   _2      H   _1
            ------      ------      ------      ------      ------      ------
 N     :    0.000000
 O   _1:    1.224763    0.000000
 O   _2:    1.224763    0.969827    0.000000
 H   _1:    2.665523    3.775299    3.178044    0.000000
 H   _2:    2.665523    3.178044    3.775299    4.282121    0.000000
 H   _1:    4.616894    5.838777    5.470142    2.498398    4.964773    0.000000
 H   _2:    4.616894    5.470142    5.838777    4.964773    2.498398    4.298566
 H     :    5.323325    6.466212    6.466212    4.305675    4.305675    2.479943

            H   _2      H     
            ------      ------
 H   _2:    0.000000
 H     :    2.479943    0.000000


  Max    interatomic separation is    6.4662 Angstrom (   12.2194 Bohr)
  between atoms   14 and    8, "H     " and "O   _1".

  Min HX interatomic separation is    1.0815 Angstrom (    2.0436 Bohr)

  Min YX interatomic separation is    0.9698 Angstrom (    1.8327 Bohr)

@ WARNING: Number of short HX and YX bond lengths:    0    1
@ WARNING: If not intentional, maybe your coordinates were in Angstrom,
@ WARNING: but "Angstrom" was not specified in .mol file


  Bond distances (Angstrom):
  --------------------------

                  atom 1     atom 2       distance
                  ------     ------       --------
  bond distance:  C   _1     C            1.391719
  bond distance:  C   _2     C            1.391719
  bond distance:  C   _1     C   _1       1.391780
  bond distance:  C   _2     C   _2       1.391780
  bond distance:  C          C   _1       1.395542
  bond distance:  C          C   _2       1.395542
  bond distance:  N          C            1.481505
  bond distance:  O   _1     N            1.224763
  bond distance:  O   _2     N            1.224763
  bond distance:  O   _2     O   _1       0.969827
  bond distance:  H   _1     C   _1       1.081451
  bond distance:  H   _2     C   _2       1.081451
  bond distance:  H   _1     C   _1       1.083722
  bond distance:  H   _2     C   _2       1.083722
  bond distance:  H          C            1.084247


  Bond angles (degrees):
  ----------------------

                  atom 1     atom 2     atom 3         angle
                  ------     ------     ------         -----
  bond angle:     C   _1     C          C   _2       122.311
  bond angle:     C   _1     C          N            118.844
  bond angle:     C   _2     C          N            118.844
  bond angle:     C          C   _1     C   _1       118.493
  bond angle:     C          C   _1     H   _1       119.647
  bond angle:     C   _1     C   _1     H   _1       121.860
  bond angle:     C          C   _2     C   _2       118.493
  bond angle:     C          C   _2     H   _2       119.647
  bond angle:     C   _2     C   _2     H   _2       121.860
  bond angle:     C   _1     C   _1     C            120.192
  bond angle:     C   _1     C   _1     H   _1       119.623
  bond angle:     C          C   _1     H   _1       120.185
  bond angle:     C   _2     C   _2     C            120.192
  bond angle:     C   _2     C   _2     H   _2       119.623
  bond angle:     C          C   _2     H   _2       120.185
  bond angle:     C   _1     C          C   _2       120.319
  bond angle:     C   _1     C          H            119.841
  bond angle:     C   _2     C          H            119.841
  bond angle:     C          N          O   _1       156.676
  bond angle:     C          N          O   _2       156.676
  bond angle:     O   _1     N          O   _2        46.647
  bond angle:     N          O   _1     O   _2        66.676
  bond angle:     N          O   _2     O   _1        66.676




 Principal moments of inertia (u*A**2) and principal axes
 --------------------------------------------------------

   IA      96.907474          0.000000    0.000000    1.000000
   IB     480.690662          1.000000    0.000000    0.000000
   IC     577.598136          0.000000    1.000000    0.000000


 Rotational constants
 --------------------

@    The molecule is planar.

               A                   B                   C

           5215.0674           1051.3601            874.9665 MHz
            0.173956            0.035070            0.029186 cm-1


@  Nuclear repulsion energy :  420.492003028797 Hartree


  Symmetry Orbitals
  -----------------

  Number of orbitals in each symmetry:         115   91   48   34


  Symmetry  A1 ( 1)

    1     C        1s         1
    2     C        1s         2
    3     C        1s         3
    4     C        1s         4
    5     C        1s         5
    6     C        2pz        8
    7     C        2pz       11
    8     C        2pz       14
    9     C        2pz       17
   10     C        3d0       20
   11     C        3d2+      22
   12     C        3d0       25
   13     C        3d2+      27
   14     C        1s        28 +   29
   15     C        1s        30 +   31
   16     C        1s        32 +   33
   17     C        1s        34 +   35
   18     C        1s        36 +   37
   19     C        2px       38 -   39
   20     C        2pz       42 +   43
   21     C        2px       44 -   45
   22     C        2pz       48 +   49
   23     C        2px       50 -   51
   24     C        2pz       54 +   55
   25     C        2px       56 -   57
   26     C        2pz       60 +   61
   27     C        3d0       66 +   67
   28     C        3d1+      68 -   69
   29     C        3d2+      70 +   71
   30     C        3d0       76 +   77
   31     C        3d1+      78 -   79
   32     C        3d2+      80 +   81
   33     C        1s        82 +   83
   34     C        1s        84 +   85
   35     C        1s        86 +   87
   36     C        1s        88 +   89
   37     C        1s        90 +   91
   38     C        2px       92 -   93
   39     C        2pz       96 +   97
   40     C        2px       98 -   99
   41     C        2pz      102 +  103
   42     C        2px      104 -  105
   43     C        2pz      108 +  109
   44     C        2px      110 -  111
   45     C        2pz      114 +  115
   46     C        3d0      120 +  121
   47     C        3d1+     122 -  123
   48     C        3d2+     124 +  125
   49     C        3d0      130 +  131
   50     C        3d1+     132 -  133
   51     C        3d2+     134 +  135
   52     C        1s       136
   53     C        1s       137
   54     C        1s       138
   55     C        1s       139
   56     C        1s       140
   57     C        2pz      143
   58     C        2pz      146
   59     C        2pz      149
   60     C        2pz      152
   61     C        3d0      155
   62     C        3d2+     157
   63     C        3d0      160
   64     C        3d2+     162
   65     N        1s       163
   66     N        1s       164
   67     N        1s       165
   68     N        1s       166
   69     N        1s       167
   70     N        2pz      170
   71     N        2pz      173
   72     N        2pz      176
   73     N        2pz      179
   74     N        3d0      182
   75     N        3d2+     184
   76     N        3d0      187
   77     N        3d2+     189
   78     O        1s       190 +  191
   79     O        1s       192 +  193
   80     O        1s       194 +  195
   81     O        1s       196 +  197
   82     O        1s       198 +  199
   83     O        2px      200 -  201
   84     O        2pz      204 +  205
   85     O        2px      206 -  207
   86     O        2pz      210 +  211
   87     O        2px      212 -  213
   88     O        2pz      216 +  217
   89     O        2px      218 -  219
   90     O        2pz      222 +  223
   91     O        3d0      228 +  229
   92     O        3d1+     230 -  231
   93     O        3d2+     232 +  233
   94     O        3d0      238 +  239
   95     O        3d1+     240 -  241
   96     O        3d2+     242 +  243
   97     H        1s       244 +  245
   98     H        1s       246 +  247
   99     H        1s       248 +  249
  100     H        2px      250 -  251
  101     H        2pz      254 +  255
  102     H        2px      256 -  257
  103     H        2pz      260 +  261
  104     H        1s       262 +  263
  105     H        1s       264 +  265
  106     H        1s       266 +  267
  107     H        2px      268 -  269
  108     H        2pz      272 +  273
  109     H        2px      274 -  275
  110     H        2pz      278 +  279
  111     H        1s       280
  112     H        1s       281
  113     H        1s       282
  114     H        2pz      285
  115     H        2pz      288


  Symmetry  B1 ( 2)

  116     C        2px        6
  117     C        2px        9
  118     C        2px       12
  119     C        2px       15
  120     C        3d1+      21
  121     C        3d1+      26
  122     C        1s        28 -   29
  123     C        1s        30 -   31
  124     C        1s        32 -   33
  125     C        1s        34 -   35
  126     C        1s        36 -   37
  127     C        2px       38 +   39
  128     C        2pz       42 -   43
  129     C        2px       44 +   45
  130     C        2pz       48 -   49
  131     C        2px       50 +   51
  132     C        2pz       54 -   55
  133     C        2px       56 +   57
  134     C        2pz       60 -   61
  135     C        3d0       66 -   67
  136     C        3d1+      68 +   69
  137     C        3d2+      70 -   71
  138     C        3d0       76 -   77
  139     C        3d1+      78 +   79
  140     C        3d2+      80 -   81
  141     C        1s        82 -   83
  142     C        1s        84 -   85
  143     C        1s        86 -   87
  144     C        1s        88 -   89
  145     C        1s        90 -   91
  146     C        2px       92 +   93
  147     C        2pz       96 -   97
  148     C        2px       98 +   99
  149     C        2pz      102 -  103
  150     C        2px      104 +  105
  151     C        2pz      108 -  109
  152     C        2px      110 +  111
  153     C        2pz      114 -  115
  154     C        3d0      120 -  121
  155     C        3d1+     122 +  123
  156     C        3d2+     124 -  125
  157     C        3d0      130 -  131
  158     C        3d1+     132 +  133
  159     C        3d2+     134 -  135
  160     C        2px      141
  161     C        2px      144
  162     C        2px      147
  163     C        2px      150
  164     C        3d1+     156
  165     C        3d1+     161
  166     N        2px      168
  167     N        2px      171
  168     N        2px      174
  169     N        2px      177
  170     N        3d1+     183
  171     N        3d1+     188
  172     O        1s       190 -  191
  173     O        1s       192 -  193
  174     O        1s       194 -  195
  175     O        1s       196 -  197
  176     O        1s       198 -  199
  177     O        2px      200 +  201
  178     O        2pz      204 -  205
  179     O        2px      206 +  207
  180     O        2pz      210 -  211
  181     O        2px      212 +  213
  182     O        2pz      216 -  217
  183     O        2px      218 +  219
  184     O        2pz      222 -  223
  185     O        3d0      228 -  229
  186     O        3d1+     230 +  231
  187     O        3d2+     232 -  233
  188     O        3d0      238 -  239
  189     O        3d1+     240 +  241
  190     O        3d2+     242 -  243
  191     H        1s       244 -  245
  192     H        1s       246 -  247
  193     H        1s       248 -  249
  194     H        2px      250 +  251
  195     H        2pz      254 -  255
  196     H        2px      256 +  257
  197     H        2pz      260 -  261
  198     H        1s       262 -  263
  199     H        1s       264 -  265
  200     H        1s       266 -  267
  201     H        2px      268 +  269
  202     H        2pz      272 -  273
  203     H        2px      274 +  275
  204     H        2pz      278 -  279
  205     H        2px      283
  206     H        2px      286


  Symmetry  B2 ( 3)

  207     C        2py        7
  208     C        2py       10
  209     C        2py       13
  210     C        2py       16
  211     C        3d1-      19
  212     C        3d1-      24
  213     C        2py       40 +   41
  214     C        2py       46 +   47
  215     C        2py       52 +   53
  216     C        2py       58 +   59
  217     C        3d2-      62 -   63
  218     C        3d1-      64 +   65
  219     C        3d2-      72 -   73
  220     C        3d1-      74 +   75
  221     C        2py       94 +   95
  222     C        2py      100 +  101
  223     C        2py      106 +  107
  224     C        2py      112 +  113
  225     C        3d2-     116 -  117
  226     C        3d1-     118 +  119
  227     C        3d2-     126 -  127
  228     C        3d1-     128 +  129
  229     C        2py      142
  230     C        2py      145
  231     C        2py      148
  232     C        2py      151
  233     C        3d1-     154
  234     C        3d1-     159
  235     N        2py      169
  236     N        2py      172
  237     N        2py      175
  238     N        2py      178
  239     N        3d1-     181
  240     N        3d1-     186
  241     O        2py      202 +  203
  242     O        2py      208 +  209
  243     O        2py      214 +  215
  244     O        2py      220 +  221
  245     O        3d2-     224 -  225
  246     O        3d1-     226 +  227
  247     O        3d2-     234 -  235
  248     O        3d1-     236 +  237
  249     H        2py      252 +  253
  250     H        2py      258 +  259
  251     H        2py      270 +  271
  252     H        2py      276 +  277
  253     H        2py      284
  254     H        2py      287


  Symmetry  A2 ( 4)

  255     C        3d2-      18
  256     C        3d2-      23
  257     C        2py       40 -   41
  258     C        2py       46 -   47
  259     C        2py       52 -   53
  260     C        2py       58 -   59
  261     C        3d2-      62 +   63
  262     C        3d1-      64 -   65
  263     C        3d2-      72 +   73
  264     C        3d1-      74 -   75
  265     C        2py       94 -   95
  266     C        2py      100 -  101
  267     C        2py      106 -  107
  268     C        2py      112 -  113
  269     C        3d2-     116 +  117
  270     C        3d1-     118 -  119
  271     C        3d2-     126 +  127
  272     C        3d1-     128 -  129
  273     C        3d2-     153
  274     C        3d2-     158
  275     N        3d2-     180
  276     N        3d2-     185
  277     O        2py      202 -  203
  278     O        2py      208 -  209
  279     O        2py      214 -  215
  280     O        2py      220 -  221
  281     O        3d2-     224 +  225
  282     O        3d1-     226 -  227
  283     O        3d2-     234 +  235
  284     O        3d1-     236 -  237
  285     H        2py      252 -  253
  286     H        2py      258 -  259
  287     H        2py      270 -  271
  288     H        2py      276 -  277

  Symmetries of electric field:  B1 (2)  B2 (3)  A1 (1)

  Symmetries of magnetic field:  B2 (3)  B1 (2)  A2 (4)


                     .---------------------------------------.
                     | Starting in Integral Section (HERMIT) |
                     `---------------------------------------'



 ***************************************************************************************
 ****************** Output from **INTEGRALS input processing (HERMIT) ******************
 ***************************************************************************************


 - Using defaults, no **INTEGRALS input found

 Default print level:        1

 Calculation of one-electron Hamiltonian integrals.

 Center of mass  (bohr):      0.000000000000      0.000000000000     -0.110731485320
 Operator center (bohr):      0.000000000000      0.000000000000      0.000000000000
 Gauge origin    (bohr):      0.000000000000      0.000000000000      0.000000000000
 Dipole origin   (bohr):      0.000000000000      0.000000000000      0.000000000000


     ************************************************************************
     ************************** Output from HERINT **************************
     ************************************************************************



                      Nuclear contribution to dipole moments
                      --------------------------------------

                 au               Debye          C m (/(10**-30)

      z    -15.59998941       -39.65121548      -132.26221814


  Time used in GABGEN     is       0.11 seconds
  Total CPU  time used in HERMIT:   0.39 seconds
  Total wall time used in HERMIT:   0.40 seconds


                        .----------------------------------.
                        | End of Integral Section (HERMIT) |
                        `----------------------------------'



                   .--------------------------------------------.
                   | Starting in Wave Function Section (SIRIUS) |
                   `--------------------------------------------'


 *** Output from Huckel module :

     Using EWMO model:          F
     Using EHT  model:          T
     Number of Huckel orbitals each symmetry:   24   17    6    3

 Huckel EHT eigenvalues for symmetry :  1
          -20.754832     -15.706238     -11.414837     -11.394396     -11.376673
          -11.362577      -2.018117      -1.579288      -1.284365      -1.031262
           -0.838821      -0.750563      -0.638896      -0.579707      -0.546489
           -0.440281      -0.315665      -0.237688      -0.219883      -0.213399
           -0.205725      -0.178497      -0.166816      -0.160385

 Huckel EHT eigenvalues for symmetry :  2
          -20.718690     -11.396449     -11.377840      -1.233683      -1.108675
           -0.880837      -0.561114      -0.533193      -0.476194      -0.416013
           -0.336048      -0.284809      -0.213860      -0.202822      -0.176271
           -0.165474      -0.163329

 Huckel EHT eigenvalues for symmetry :  3
           -0.871265      -0.703742      -0.491399      -0.395584      -0.281647
           -0.236537

 Huckel EHT eigenvalues for symmetry :  4
           -0.461096      -0.452269      -0.288960

 **********************************************************************
 *SIRIUS* a direct, restricted step, second order MCSCF program       *
 **********************************************************************

 
     Date and time (Linux)  : Fri Jan 10 15:59:15 2020
     Host name              : Lab2-333-NPs                            

 Title lines from ".mol" input file:
      nitrobenzene                                                           
      Generated by the Dalton Input File Plugin for Avogadro                 

 Print level on unit LUPRI =   2 is   0
 Print level on unit LUW4  =   2 is   5

@    MC-SCF optimization.

@    Multi-configurational response calculation.
@              Type: complete active space calculation (CAS).

@    This is a combination run starting with
@              a restricted, closed shell Hartree-Fock calculation
@              an MP2 calculation

 Fock matrices are calculated directly without use of integrals on disk.

 Initial molecular orbitals are obtained according to
 ".MOSTART EHT   " input option

     Wave function specification
     ============================
@    Wave function type        --- MC-SCF ---
@    Number of closed shell electrons          54
@    Number of electrons in active shells      10
@    Total charge of the molecule               0

@    Spin multiplicity and 2 M_S                1         0
@    Total number of symmetries                 4 (point group: C2v)
@    Reference state symmetry                   1 (irrep name : A1 )

     Orbital specifications
     ======================
@    Abelian symmetry species          All |    1    2    3    4
@                                          |  A1   B1   B2   A2 
                                       --- |  ---  ---  ---  ---
@    Inactive orbitals                  27 |   15   10    2    0
@    Active orbitals                     7 |    1    1    2    3
@    Secondary orbitals                254 |   99   80   44   31
@    Total number of orbitals          288 |  115   91   48   34
@    Number of basis functions         288 |  115   91   48   34

      ** Automatic occupation of RHF orbitals **

      -- Initial occupation of symmetries is determined from extended Huckel guess.           
      -- Initial occupation of symmetries is :
@    Occupied SCF orbitals              32 |   16   10    4    2

     Optimization information
     ========================
@    Number of determinants                 115
@    Number of orbital rotations           2762
     ------------------------------------------
@    Total number of variables             2877

     Maximum number of macro iterations      25
     Maximum number of micro iterations     600
     Threshold for MCSCF gradient      1.00D-05
     Number of initial trial vectors          1
     Number of initial CI iterations          3
     Number of simultaneous trial vectors     1

@    This calculation converges to the lowest state for the specified symmetry and spin species.

     Maximum number of NEO/NR iterations  24

    INFORMATION: Switched to "new" integral transformation (from 1988 ;-) )
    because more than 255 basis functions.


 ***********************************************
 ***** DIIS acceleration of SCF iterations *****
 ***********************************************

 C1-DIIS algorithm; max error vectors =    8

 Automatic occupation of symmetries with  64 electrons.

 Iter     Total energy    Error norm  Delta(E)    SCF occupation
 -----------------------------------------------------------------------------
   1  Screening settings (-IFTHRS, JTDIIS, DIFDEN, times)   -8    1    T  2.63D+01  2.64D+01
@  1  -431.800593444       6.61D+00  -4.32D+02    16  10   4   2
      Virial theorem: -V/T =      1.995771
@    MULPOP   C       0.51; C   _1  0.09; C   _2  0.09; C   _1  0.26; C   _2  0.26; C       0.19; N      -0.06; O   _1 -0.21; O   _2 -0.21; H   _1 -0.19; 
@             H   _2 -0.19; H   _1 -0.18; H   _2 -0.18; H      -0.18; 
   1  Level shift: doubly occupied orbital energies shifted by -2.00D-01
 -----------------------------------------------------------------------------
   2  Screening settings (-IFTHRS, JTDIIS, DIFDEN, times)   -8    2    T  2.67D+01  2.67D+01
@  2  -433.511630034       1.44D+00  -1.71D+00    16  10   4   2
      Virial theorem: -V/T =      1.989675
@    MULPOP   C       1.72; C   _1  0.02; C   _2  0.02; C   _1  0.43; C   _2  0.43; C       0.36; N       0.16; O   _1 -0.48; O   _2 -0.48; H   _1 -0.46; 
@             H   _2 -0.46; H   _1 -0.41; H   _2 -0.41; H      -0.42; 
   2  Level shift: doubly occupied orbital energies shifted by -5.00D-02
 -----------------------------------------------------------------------------
   3  Screening settings (-IFTHRS, JTDIIS, DIFDEN, times)   -8    3    T  2.66D+01  2.66D+01
@  3  -433.629990829       4.07D-01  -1.18D-01    16  10   4   2
      Virial theorem: -V/T =      1.996096
@    MULPOP   C       2.15; C   _1 -0.08; C   _2 -0.08; C   _1  0.58; C   _2  0.58; C       0.32; N       0.07; O   _1 -0.55; O   _2 -0.55; H   _1 -0.51; 
@             H   _2 -0.51; H   _1 -0.46; H   _2 -0.46; H      -0.47; 
   3  Level shift: doubly occupied orbital energies shifted by -2.50D-02
 -----------------------------------------------------------------------------
   4  Screening settings (-IFTHRS, JTDIIS, DIFDEN, times)   -8    4    T  2.63D+01  2.63D+01
@  4  -433.641966979       1.18D-01  -1.20D-02    16  10   4   2
      Virial theorem: -V/T =      1.994669
@    MULPOP   C       2.17; C   _1 -0.12; C   _2 -0.12; C   _1  0.59; C   _2  0.59; C       0.32; N       0.00; O   _1 -0.54; O   _2 -0.54; H   _1 -0.49; 
@             H   _2 -0.49; H   _1 -0.45; H   _2 -0.45; H      -0.46; 
   4  Level shift: doubly occupied orbital energies shifted by -1.25D-02
 -----------------------------------------------------------------------------
   5  Screening settings (-IFTHRS, JTDIIS, DIFDEN, times)  -10    5    F  2.67D+01  2.66D+01
@  5  -433.642960215       5.06D-02  -9.93D-04    16  10   4   2
      Virial theorem: -V/T =      1.994575
@    MULPOP   C       2.19; C   _1 -0.12; C   _2 -0.12; C   _1  0.59; C   _2  0.59; C       0.30; N       0.00; O   _1 -0.55; O   _2 -0.55; H   _1 -0.49; 
@             H   _2 -0.49; H   _1 -0.44; H   _2 -0.44; H      -0.45; 
 -----------------------------------------------------------------------------
   6  Screening settings (-IFTHRS, JTDIIS, DIFDEN, times)  -10    6    T  2.63D+01  2.64D+01
@  6  -433.643129011       1.12D-02  -1.69D-04    16  10   4   2
      Virial theorem: -V/T =      1.994679
@    MULPOP   C       2.19; C   _1 -0.13; C   _2 -0.13; C   _1  0.59; C   _2  0.59; C       0.30; N      -0.01; O   _1 -0.55; O   _2 -0.55; H   _1 -0.49; 
@             H   _2 -0.49; H   _1 -0.44; H   _2 -0.44; H      -0.45; 
 -----------------------------------------------------------------------------
   7  Screening settings (-IFTHRS, JTDIIS, DIFDEN, times)  -13    7    F  2.68D+01  2.68D+01
@  7  -433.643141367       2.21D-03  -1.24D-05    16  10   4   2
      Virial theorem: -V/T =      1.994658
@    MULPOP   C       2.19; C   _1 -0.13; C   _2 -0.13; C   _1  0.59; C   _2  0.59; C       0.30; N      -0.01; O   _1 -0.55; O   _2 -0.55; H   _1 -0.49; 
@             H   _2 -0.49; H   _1 -0.44; H   _2 -0.44; H      -0.45; 
 -----------------------------------------------------------------------------
   8  Screening settings (-IFTHRS, JTDIIS, DIFDEN, times)  -13    8    T  2.66D+01  2.66D+01
@  8  -433.643142124       9.26D-04  -7.57D-07    16  10   4   2
      Virial theorem: -V/T =      1.994657
@    MULPOP   C       2.19; C   _1 -0.13; C   _2 -0.13; C   _1  0.59; C   _2  0.59; C       0.30; N      -0.01; O   _1 -0.55; O   _2 -0.55; H   _1 -0.49; 
@             H   _2 -0.49; H   _1 -0.44; H   _2 -0.44; H      -0.45; 
 -----------------------------------------------------------------------------
   9  Screening settings (-IFTHRS, JTDIIS, DIFDEN, times)  -13    9    T  2.65D+01  2.66D+01
@  9  -433.643142226       3.02D-04  -1.02D-07    16  10   4   2
      Virial theorem: -V/T =      1.994658
@    MULPOP   C       2.19; C   _1 -0.13; C   _2 -0.13; C   _1  0.59; C   _2  0.59; C       0.30; N      -0.01; O   _1 -0.55; O   _2 -0.55; H   _1 -0.49; 
@             H   _2 -0.49; H   _1 -0.44; H   _2 -0.44; H      -0.45; 
 -----------------------------------------------------------------------------
  10  Screening settings (-IFTHRS, JTDIIS, DIFDEN, times)  -13   10    T  2.66D+01  2.66D+01
@ 10  -433.643142245       8.92D-05  -1.92D-08    16  10   4   2
      Virial theorem: -V/T =      1.994658
@    MULPOP   C       2.19; C   _1 -0.13; C   _2 -0.13; C   _1  0.59; C   _2  0.59; C       0.30; N      -0.01; O   _1 -0.55; O   _2 -0.55; H   _1 -0.49; 
@             H   _2 -0.49; H   _1 -0.44; H   _2 -0.44; H      -0.45; 
 -----------------------------------------------------------------------------
  11  Screening settings (-IFTHRS, JTDIIS, DIFDEN, times)  -13   11    T  2.65D+01  2.65D+01
@ 11  -433.643142248       4.81D-05  -2.55D-09    16  10   4   2
      Virial theorem: -V/T =      1.994658
@    MULPOP   C       2.19; C   _1 -0.13; C   _2 -0.13; C   _1  0.59; C   _2  0.59; C       0.30; N      -0.01; O   _1 -0.55; O   _2 -0.55; H   _1 -0.49; 
@             H   _2 -0.49; H   _1 -0.44; H   _2 -0.44; H      -0.45; 
 -----------------------------------------------------------------------------
  12  Screening settings (-IFTHRS, JTDIIS, DIFDEN, times)  -13   12    T  2.64D+01  2.64D+01
@ 12  -433.643142248       2.42D-05  -5.81D-10    16  10   4   2
      Virial theorem: -V/T =      1.994658
@    MULPOP   C       2.19; C   _1 -0.13; C   _2 -0.13; C   _1  0.59; C   _2  0.59; C       0.30; N      -0.01; O   _1 -0.55; O   _2 -0.55; H   _1 -0.49; 
@             H   _2 -0.49; H   _1 -0.44; H   _2 -0.44; H      -0.45; 
 -----------------------------------------------------------------------------
  13  Screening settings (-IFTHRS, JTDIIS, DIFDEN, times)  -13   13    T  2.65D+01  2.65D+01
@ 13  -433.643142248       7.27D-06  -2.14D-10    16  10   4   2
      Virial theorem: -V/T =      1.994658
@    MULPOP   C       2.19; C   _1 -0.13; C   _2 -0.13; C   _1  0.59; C   _2  0.59; C       0.30; N      -0.01; O   _1 -0.55; O   _2 -0.55; H   _1 -0.49; 
@             H   _2 -0.49; H   _1 -0.44; H   _2 -0.44; H      -0.45; 
 -----------------------------------------------------------------------------
  14  Screening settings (-IFTHRS, JTDIIS, DIFDEN, times)  -13   14    T  2.64D+01  2.64D+01
@ 14  -433.643142248       3.36D-06  -2.67D-11    16  10   4   2
      Virial theorem: -V/T =      1.994658
@    MULPOP   C       2.19; C   _1 -0.13; C   _2 -0.13; C   _1  0.59; C   _2  0.59; C       0.30; N      -0.01; O   _1 -0.55; O   _2 -0.55; H   _1 -0.49; 
@             H   _2 -0.49; H   _1 -0.44; H   _2 -0.44; H      -0.45; 
 -----------------------------------------------------------------------------
  15  Screening settings (-IFTHRS, JTDIIS, DIFDEN, times)  -13   15    T  2.63D+01  2.63D+01
@ 15  -433.643142248       1.18D-06   1.10D-11    16  10   4   2
      Virial theorem: -V/T =      1.994658
@    MULPOP   C       2.19; C   _1 -0.13; C   _2 -0.13; C   _1  0.59; C   _2  0.59; C       0.30; N      -0.01; O   _1 -0.55; O   _2 -0.55; H   _1 -0.49; 
@             H   _2 -0.49; H   _1 -0.44; H   _2 -0.44; H      -0.45; 
 -----------------------------------------------------------------------------
  16  Screening settings (-IFTHRS, JTDIIS, DIFDEN, times)  -13   16    T  2.61D+01  2.61D+01
@ 16  -433.643142248       5.13D-07  -1.51D-11    16  10   4   2

@ *** DIIS converged in  16 iterations !
@     Converged SCF energy, gradient:   -433.643142248465    5.13D-07
    - total time used in SIRFCK :              0.00 seconds

 --- Writing SIRIFC interface file

 CPU and wall time for SCF :     424.188     424.436


 ----- Output from SIRIUS MP2 module -----

 Reference: H.J.Aa.Jensen, P.Jorgensen, H.Agren, and J.Olsen,
            J. Chem. Phys. 88, 3834 (1988); 89, 5354 (1988)

 Checking that the closed shell orbitals are canonical Hartree-Fock orbitals

    Number of electrons  :   64
    Closed shell orbitals:   16   10    4    2

 Generating Fock matrix

 Hartree-Fock electronic energy:        -854.135145277257
 Hartree-Fock total      energy:        -433.643142248460

 Hartree-Fock orbital energies, symmetry 1 ( A1 ),   16 occupied SCF orbitals

       -20.68973167   -15.65618741   -11.35469819   -11.26416655   -11.25857845
       -11.24762539    -2.11213905    -1.24579931    -1.16948544    -1.04857707
        -0.89782213    -0.81849480    -0.76307942    -0.69258319    -0.63138303
        -0.53313858     0.03315177     0.04565562     0.06350321     0.10859999
         0.12371506     0.14123002     0.15387622     0.15747737     0.16980445
         0.18266653     0.20548387     0.24002541     0.26695735     0.28676992
         0.31946378     0.33235129     0.34349186     0.35867170     0.36333765
         0.39183889     0.40916273     0.42302122     0.45876473     0.47249267
         0.51031542     0.56955844     0.57574502     0.60552774     0.62925885
         0.66761140     0.67588561     0.68205725     0.72129473     0.76092609
         0.78847614     0.83350581     0.89647170     0.90289772     0.95965004
         0.98688128     1.01726095     1.06579082     1.06981221     1.08923026
         1.21341994     1.29153285     1.34132602     1.41803667     1.49979882
         1.53992984     1.55648247     1.59547262     1.61315480     1.63529709
         1.69156128     1.73606967     1.76871346     1.79059646     1.87438485
         1.95955488     1.99189189     2.03424139     2.03963114     2.19902306
         2.23510691     2.29540456     2.34449045     2.40650224     2.44104073
         2.52780033     2.56086267     2.69429914     2.75285394     2.84019922
         2.91689076     2.98488323     3.05652157     3.15113239     3.17270391
         3.31647827     3.49535315     3.88533571     4.17260664     4.21646299
        19.81823777    20.32350253    20.46995400    20.64002698    23.37017267
        23.43724563    23.48341631    23.80756459    23.90957949    24.12914345
        27.37551733    31.77985090    35.70541186    39.46888847    40.01816577

 Hartree-Fock orbital energies, symmetry 2 ( B1 ),   10 occupied SCF orbitals

       -20.68673380   -11.26414018   -11.25859185    -1.11939943    -1.03948895
        -0.85354597    -0.65448653    -0.61019450    -0.54595934    -0.51353027
         0.03905924     0.05756137     0.13329433     0.13743446     0.15246121
         0.16159716     0.18106262     0.20684288     0.25861852     0.29727580
         0.30713568     0.31774740     0.35149377     0.36664376     0.38015173
         0.40312478     0.41515840     0.43345757     0.51463472     0.55993352
         0.58018389     0.63200874     0.65706831     0.68111797     0.69913427
         0.75310111     0.77398286     0.82665298     0.84549810     0.86364132
         0.89218798     0.96997328     1.03415344     1.16893967     1.25469786
         1.31555024     1.35874440     1.39277391     1.47375092     1.50760541
         1.55454845     1.60363873     1.65765241     1.68985132     1.72394740
         1.76871944     1.79007321     1.82364006     1.87228377     1.94612795
         2.05555433     2.14094979     2.17542221     2.31826554     2.33411844
         2.38508994     2.44971689     2.54765352     2.70232481     2.74473200
         2.91055365     2.94496506     3.17381541     3.29844172     3.37896584
         3.43311255     4.05134090     4.56388223     4.96880326    20.29688547
        20.48080256    22.87619030    23.33104533    23.39478230    23.96316148
        24.13243172    24.31888890    31.34237300    36.15813719    40.05861943
        42.09253667

 Hartree-Fock orbital energies, symmetry 3 ( B2 ),    4 occupied SCF orbitals

        -0.97544537    -0.54594792    -0.44071581    -0.30890942     0.10366212
         0.12009281     0.13909897     0.18496469     0.19008274     0.22987058
         0.29835353     0.33990677     0.39069560     0.46868335     0.54717175
         0.59990874     0.67309025     0.71609051     0.79519736     0.87761187
         0.91691255     0.93071640     0.95893811     1.04138355     1.07918659
         1.15653307     1.19559108     1.47912959     1.52703193     1.62847479
         1.68284201     1.71715925     1.85092522     1.94472309     2.09710841
         2.13632048     2.18848347     2.31551106     2.56220966     2.68911906
         3.09014030     3.70438807    22.56528445    22.71312177    22.84199847
        23.04104807    30.76974548    39.41836661

 Hartree-Fock orbital energies, symmetry 4 ( A2 ),    2 occupied SCF orbitals

        -0.36066778    -0.35583100     0.09454802     0.13748314     0.19147195
         0.28560623     0.41918083     0.49557922     0.55207657     0.66047312
         0.74524351     0.89025675     0.90994001     0.94812537     1.04091710
         1.08200680     1.23056002     1.33291862     1.44880350     1.64118708
         1.69218101     1.70299780     1.82671364     1.88464222     2.11467531
         2.18883982     2.36150566     2.54659373     2.63188464     3.89253999
         4.45169438    22.70915058    22.87792480    39.53230699

    E(LUMO) :     0.03315177   (in symmetry 1)
  - E(HOMO) :    -0.30890942   (in symmetry 3)
  --------------------------
    gap     :     0.34206118

---> (Re)generating AOTWOINT


     ************************************************************************
     ************************** Output from HERINT **************************
     ************************************************************************


 Threshold for neglecting two-electron integrals:  1.00D-12
 HERMIT - Number of two-electron integrals written:   198196786 ( 22.9% )
 HERMIT - Megabytes written:                           3025.503

  Time used in TWOINT     is      36.73 seconds

 2-el. integral transformation level 5: Total CPU and WALL times (sec)     391.594     394.966

 MP2 move   0.894547 electrons to unoccupied HF orbitals


@   Hartree-Fock total energy   :          -433.6431422485
@   + MP2 contribution          :            -1.6569837753
@   = MP2 second order energy   :          -435.3001260238

 Natural orbital occupation numbers, symmetry 1 (irrep A1 )
 Sum =    31.99395982; RHF =    32.00000000; Difference =    -0.00604018

         1.99928195     1.99905776     1.99876115     1.99875789     1.99875214
         1.99874866     1.99014836     1.98421861     1.97982654     1.97450014
         1.97150072     1.96958161     1.96632780     1.96289174     1.95605766
         1.94931154     0.03832680     0.02561158     0.02424423     0.02193371
         0.01897329     0.01719326     0.01643404     0.01354562     0.01299226
         0.01224774     0.00997217     0.00888810     0.00837711     0.00768875
         0.00667366     0.00624980     0.00470245     0.00424351     0.00346456
         0.00299283     0.00288446     0.00257658     0.00237046     0.00206793
         0.00169443     0.00155464     0.00140899     0.00127837     0.00122571
         0.00112321     0.00106375     0.00095130     0.00073490     0.00065594
         0.00061765     0.00050988     0.00048600     0.00044554     0.00043055
         0.00041627     0.00039881     0.00037482     0.00035911     0.00035393
         0.00034118     0.00032477     0.00031394     0.00030038     0.00028086
         0.00026107     0.00023328     0.00022422     0.00022084     0.00019747
         0.00019397     0.00018350     0.00017710     0.00017245     0.00016751
         0.00016040     0.00015721     0.00014352     0.00013931     0.00013526
         0.00013244     0.00012106     0.00011850     0.00010540     0.00010118
         0.00009235     0.00007801     0.00006524     0.00005848     0.00005148
         0.00004470     0.00003641     0.00003344     0.00002522     0.00001712
         0.00001480     0.00001415     0.00001241     0.00001064     0.00000950
         0.00000782     0.00000742     0.00000645     0.00000352     0.00000223
         0.00000131     0.00000088     0.00000070     0.00000044     0.00000025
         0.00000015     0.00000007    -0.00000008    -0.00000074    -0.00000431

 Natural orbital occupation numbers, symmetry 2 (irrep B1 )
 Sum =    19.99231703; RHF =    20.00000000; Difference =    -0.00768297

         1.99927292     1.99875752     1.99874989     1.98169251     1.98000950
         1.97258859     1.96088723     1.95558275     1.95429692     1.94424666
         0.04611970     0.02507060     0.02371315     0.01801027     0.01696942
         0.01639908     0.01573256     0.01200006     0.00973721     0.00912555
         0.00825454     0.00562963     0.00532621     0.00356843     0.00319863
         0.00305540     0.00249959     0.00216843     0.00197685     0.00164262
         0.00161293     0.00141339     0.00133175     0.00117602     0.00102406
         0.00099653     0.00068274     0.00064275     0.00054458     0.00045814
         0.00043198     0.00042332     0.00036944     0.00033835     0.00032959
         0.00030258     0.00029436     0.00026379     0.00025376     0.00022318
         0.00020877     0.00019914     0.00018811     0.00018313     0.00018207
         0.00017206     0.00016780     0.00016338     0.00015072     0.00014177
         0.00013601     0.00012844     0.00012313     0.00011796     0.00010253
         0.00010016     0.00009326     0.00007991     0.00005313     0.00004594
         0.00003181     0.00003109     0.00002368     0.00001794     0.00001528
         0.00001365     0.00001234     0.00001079     0.00000952     0.00000897
         0.00000442     0.00000285     0.00000135     0.00000087     0.00000063
         0.00000036     0.00000027     0.00000011    -0.00000005    -0.00000072
        -0.00000120

 Natural orbital occupation numbers, symmetry 3 (irrep B2 )
 Sum =     7.99163570; RHF =     8.00000000; Difference =    -0.00836430

         1.97910656     1.95889192     1.94526708     1.90742420     0.07120350
         0.03161425     0.01506272     0.01342415     0.01071729     0.00967731
         0.00892417     0.00744796     0.00711174     0.00532945     0.00403486
         0.00333930     0.00240942     0.00162018     0.00146545     0.00092039
         0.00089416     0.00070435     0.00056417     0.00052989     0.00047960
         0.00045459     0.00039244     0.00034551     0.00030120     0.00024567
         0.00021401     0.00020191     0.00019222     0.00018234     0.00017271
         0.00013753     0.00012781     0.00011751     0.00009877     0.00009219
         0.00007503     0.00005583     0.00002911     0.00002414     0.00001211
         0.00000709     0.00000179    -0.00000991

 Natural orbital occupation numbers, symmetry 4 (irrep A2 )
 Sum =     4.02208746; RHF =     4.00000000; Difference =     0.02208746

         1.96883142     1.91259483     0.06946246     0.01782901     0.01098863
         0.00967691     0.00733603     0.00576134     0.00435550     0.00373051
         0.00272466     0.00150136     0.00143881     0.00096167     0.00079393
         0.00074199     0.00063045     0.00054098     0.00041814     0.00038442
         0.00031583     0.00023772     0.00019737     0.00018380     0.00014747
         0.00013281     0.00012400     0.00009909     0.00007462     0.00005020
         0.00002211     0.00001955     0.00001059    -0.00023074

 Time used for MP2 natural orbitals :     421.656 CPU seconds,     425.054 wall seconds.

 CPU and wall time for MP2 :     421.656     425.055


        SIRIUS MCSCF optimization (SIROPT)
 ================================================


 Fock matrix screening setting for SIRCNO: IFTHRS =    9


 ----- Output from SIRIUS CI module (CICTL) -----




 2-el. integral transformation level 0: Total CPU and WALL times (sec)      93.469      93.485


 --- SIRCI.CIST1: plus combination of all degenerate
                 configurations is used as start vectors.


 (CIST1) 8 lowest diagonal elements:

 Element no. Config.no.    Active energy      Total energy

         1 :          1    -15.2575109835   -433.6319424669
         2 :          2    -14.9651353706   -433.3395668539
         3 :          6    -14.9651353706   -433.3395668539
         4 :          3    -14.8190231629   -433.1934546462
         5 :         11    -14.8190231629   -433.1934546462
         6 :          7    -14.6581012928   -433.0325327762
         7 :         44    -14.6318706719   -433.0063021553
         8 :         45    -14.5278603796   -432.9022918629


 Convergence threshold for CI optimization :     0.00000500



 *** Reached maximum number of CI iterations:    3
              1 CI roots are not converged.


@ Final CI energies and residuals in symmetry 1 (irrep A1 )
@    1     -433.648939473428243       1.94D-03

   --- OUTPUT FROM SIRCNO     Keyword = FD+NO 


 Occupations of CAS natural orbitals:

 Symmetry  1 ( irrep A1  in C2v )

   1.998287143

 Symmetry  2 ( irrep B1  in C2v )

   0.002264674

 Symmetry  3 ( irrep B2  in C2v )

   1.997291009   1.988713257

 Symmetry  4 ( irrep A2  in C2v )

   1.999449017   1.972540419   0.041454481


 --- MACRO ITERATION  1 ---
 --------------------------

 2-el. integral transformation level 3: Total CPU and WALL times (sec)      95.203      95.249

 Fock matrix screening setting for this macro iteration: 10^( -9)

 Total MCSCF energy       :          -433.648939473437167  (MACRO    1)

 - Nuclear repulsion      :           420.492003028796546
 - Inactive energy        :          -838.866434512023488
 - Active energy          :           -15.274507990210223

 Norm of total gradient   :             0.418834347152
 -    of CI gradient      :             0.003873784329
 -    of orbital gradient :             0.418816432520
      Virial theorem: -V/T =      1.984320
@    MULPOP   C       2.08; C   _1  0.02; C   _2  0.02; C   _1  0.51; C   _2  0.51; C       0.39; N       0.77; O   _1 -0.90; O   _2 -0.90; H   _1 -0.54; 
@             H   _2 -0.54; H   _1 -0.47; H   _2 -0.47; H      -0.49; 

 (SIRNEO) iteration (  1,  5)
 Micro iteration termination criterion met, EVAL(ISTATE+1) = -1.79D-03

   --- OUTPUT FROM SIRCNO     Keyword = FD+NO 


 Occupations of CAS natural orbitals:

 Symmetry  1 ( irrep A1  in C2v )

   1.991590695

 Symmetry  2 ( irrep B1  in C2v )

   0.008960793

 Symmetry  3 ( irrep B2  in C2v )

   1.997133517   1.987801804

 Symmetry  4 ( irrep A2  in C2v )

   1.999449907   1.970679234   0.044384049


 --- MACRO ITERATION  2 ---
 --------------------------

 2-el. integral transformation level 3: Total CPU and WALL times (sec)      95.750      95.783

 Fock matrix screening setting for this macro iteration: 10^( -9)

 Total MCSCF energy       :          -433.660741743240635  (MACRO    2)

 - Nuclear repulsion      :           420.492003028796546
 - Inactive energy        :          -838.460416541453242
 - Active energy          :           -15.692328230583939

 Norm of total gradient   :             0.101756167314
 -    of CI gradient      :             0.090148827956
 -    of orbital gradient :             0.047196466020
      Virial theorem: -V/T =      1.988920
@    MULPOP   C       2.63; C   _1 -0.52; C   _2 -0.52; C   _1  0.72; C   _2  0.72; C       0.33; N       0.63; O   _1 -0.84; O   _2 -0.84; H   _1 -0.50; 
@             H   _2 -0.50; H   _1 -0.43; H   _2 -0.43; H      -0.46; 

 Residual norm when dim(red L) =   7
 NEO root     CSF        orbital          total
    1     0.01028244     0.00768427     0.01283653 converged

 (NEONEX) NEO vector is converged.

   --- OUTPUT FROM SIRCNO     Keyword = FD+NO 


 Occupations of CAS natural orbitals:

 Symmetry  1 ( irrep A1  in C2v )

   1.995987786

 Symmetry  2 ( irrep B1  in C2v )

   0.004242434

 Symmetry  3 ( irrep B2  in C2v )

   1.997173327   1.987646764

 Symmetry  4 ( irrep A2  in C2v )

   1.999770740   1.970197554   0.044981395


 --- MACRO ITERATION  3 ---
 --------------------------

 2-el. integral transformation level 3: Total CPU and WALL times (sec)      95.578      95.621

 Fock matrix screening setting for this macro iteration: 10^( -9)

 Total MCSCF energy       :          -433.662279969751808  (MACRO    3)

 - Nuclear repulsion      :           420.492003028796546
 - Inactive energy        :          -838.518755114145506
 - Active energy          :           -15.635527884402826

 Norm of total gradient   :             0.013290976935
 -    of CI gradient      :             0.010768690730
 -    of orbital gradient :             0.007790081376
      Virial theorem: -V/T =      1.988765
@    MULPOP   C       2.41; C   _1 -0.34; C   _2 -0.34; C   _1  0.64; C   _2  0.64; C       0.33; N       0.72; O   _1 -0.85; O   _2 -0.85; H   _1 -0.51; 
@             H   _2 -0.51; H   _1 -0.44; H   _2 -0.44; H      -0.45; 

 (SIRNEO) iteration (  3,  3)
 Micro iteration termination criterion met, EVAL(ISTATE+1) = -3.26D-04

   --- OUTPUT FROM SIRCNO     Keyword = FD+NO 


 Occupations of CAS natural orbitals:

 Symmetry  1 ( irrep A1  in C2v )

   1.996273539

 Symmetry  2 ( irrep B1  in C2v )

   0.003870395

 Symmetry  3 ( irrep B2  in C2v )

   1.997695282   1.987053498

 Symmetry  4 ( irrep A2  in C2v )

   1.999857846   1.968892879   0.046356560


 --- MACRO ITERATION  4 ---
 --------------------------

 2-el. integral transformation level 3: Total CPU and WALL times (sec)      94.906      94.915

 Fock matrix screening setting for this macro iteration: 10^( -9)

 Total MCSCF energy       :          -433.662942580215145  (MACRO    4)

 - Nuclear repulsion      :           420.492003028796546
 - Inactive energy        :          -838.343383189070209
 - Active energy          :           -15.811562419941453

 Norm of total gradient   :             0.035667380436
 -    of CI gradient      :             0.028578299871
 -    of orbital gradient :             0.021341105961
      Virial theorem: -V/T =      1.992680
@    MULPOP   C       2.25; C   _1 -0.24; C   _2 -0.24; C   _1  0.55; C   _2  0.55; C       0.37; N       0.20; O   _1 -0.54; O   _2 -0.54; H   _1 -0.51; 
@             H   _2 -0.51; H   _1 -0.44; H   _2 -0.44; H      -0.46; 

 Residual norm when dim(red L) =   7
 NEO root     CSF        orbital          total
    1     0.00259048     0.00081503     0.00271567 converged

 (NEONEX) NEO vector is converged.

   --- OUTPUT FROM SIRCNO     Keyword = FD+NO 


 Occupations of CAS natural orbitals:

 Symmetry  1 ( irrep A1  in C2v )

   1.995724067

 Symmetry  2 ( irrep B1  in C2v )

   0.004311839

 Symmetry  3 ( irrep B2  in C2v )

   1.997604487   1.987217083

 Symmetry  4 ( irrep A2  in C2v )

   1.999965685   1.969128335   0.046048504


 --- MACRO ITERATION  5 ---
 --------------------------

 2-el. integral transformation level 3: Total CPU and WALL times (sec)      95.391      95.437

 Fock matrix screening setting for this macro iteration: 10^( -9)

 Total MCSCF energy       :          -433.663252965645199  (MACRO    5)

 - Nuclear repulsion      :           420.492003028796546
 - Inactive energy        :          -838.369037568809517
 - Active energy          :           -15.786218425632224

 Norm of total gradient   :             0.008081894179
 -    of CI gradient      :             0.007986787557
 -    of orbital gradient :             0.001236219255
      Virial theorem: -V/T =      1.991831
@    MULPOP   C       2.10; C   _1 -0.22; C   _2 -0.22; C   _1  0.60; C   _2  0.60; C       0.32; N       0.37; O   _1 -0.61; O   _2 -0.61; H   _1 -0.51; 
@             H   _2 -0.51; H   _1 -0.44; H   _2 -0.44; H      -0.45; 

 Residual norm when dim(red L) =  15
 NEO root     CSF        orbital          total
    1     0.00002976     0.00001125     0.00003182 converged

 (NEONEX) NEO vector is converged.

   --- OUTPUT FROM SIRCNO     Keyword = FD+NO 


 Occupations of CAS natural orbitals:

 Symmetry  1 ( irrep A1  in C2v )

   1.996021028

 Symmetry  2 ( irrep B1  in C2v )

   0.004001159

 Symmetry  3 ( irrep B2  in C2v )

   1.997569722   1.987225538

 Symmetry  4 ( irrep A2  in C2v )

   1.999979336   1.969084698   0.046118519


 --- MACRO ITERATION  6 ---
 --------------------------

 2-el. integral transformation level 3: Total CPU and WALL times (sec)      94.875      94.889

 Fock matrix screening setting for this macro iteration: 10^( -9)

 Total MCSCF energy       :          -433.663264142832020  (MACRO    6)

 - Nuclear repulsion      :           420.492003028796546
 - Inactive energy        :          -838.369898257964451
 - Active energy          :           -15.785368913664133

 Norm of total gradient   :             0.000105859359
 -    of CI gradient      :             0.000100753508
 -    of orbital gradient :             0.000032479755
      Virial theorem: -V/T =      1.991960
@    MULPOP   C       2.11; C   _1 -0.22; C   _2 -0.22; C   _1  0.60; C   _2  0.60; C       0.32; N       0.36; O   _1 -0.60; O   _2 -0.60; H   _1 -0.51; 
@             H   _2 -0.51; H   _1 -0.44; H   _2 -0.44; H      -0.45; 

 Residual norm when dim(red L) =   8
 NEO root     CSF        orbital          total
    1     0.00000740     0.00000576     0.00000937 converged

 (NEONEX) NEO vector is converged.

   --- OUTPUT FROM SIRCNO     Keyword = FD+NO 


 Occupations of CAS natural orbitals:

 Symmetry  1 ( irrep A1  in C2v )

   1.996022490

 Symmetry  2 ( irrep B1  in C2v )

   0.003999940

 Symmetry  3 ( irrep B2  in C2v )

   1.997568846   1.987225679

 Symmetry  4 ( irrep A2  in C2v )

   1.999979095   1.969086533   0.046117417


 --- MACRO ITERATION  7 ---
 --------------------------

 2-el. integral transformation level 3: Total CPU and WALL times (sec)      94.875      94.900

 Fock matrix screening setting for this macro iteration: 10^( -9)

 Total MCSCF energy       :          -433.663264152454758  (MACRO    7)

 - Nuclear repulsion      :           420.492003028796546
 - Inactive energy        :          -838.370157549186388
 - Active energy          :           -15.785109632064945

 Norm of total gradient   :             0.000009338104
 -    of CI gradient      :             0.000007354588
 -    of orbital gradient :             0.000005754148
      Virial theorem: -V/T =      1.991966
@    MULPOP   C       2.11; C   _1 -0.22; C   _2 -0.22; C   _1  0.60; C   _2  0.60; C       0.32; N       0.36; O   _1 -0.60; O   _2 -0.60; H   _1 -0.51; 
@             H   _2 -0.51; H   _1 -0.44; H   _2 -0.44; H      -0.45; 

 (SIRSTP) Energy difference;
 actual, predicted and ratio:  -0.000000009622738  -0.000000009642911    0.997908
 Close to convergence, ratio set to one.

 *** Optimization control: MCSCF converged ***
     Number of macro iterations used            7
     Number of micro iterations used           37
     Total number of CPU seconds used      2254.06

 CPU and wall time for MCSCF :    2254.078    2254.964


                     .----------------------------------------.
                     | --- SIRIUS OPTIMIZATION STATISTICS --- |
                     `----------------------------------------'


 
     Date and time (Linux)  : Fri Jan 10 16:50:59 2020
     Host name              : Lab2-333-NPs                            


  ITER ITMIC     EMCSCF           GRDNRM        RATIO      STPLNG
 ---------------------------------------------------------------------
    1    5   -433.648939473437   0.4188343472  0.000000   0.7685265790
    2    5   -433.660741743241   0.1017561673  0.751525   0.1590975966
    3    3   -433.662279969752   0.0132909769  1.061959   0.7433630951
    4    5   -433.662942580215   0.0356673804  0.280741   0.1463460232
    5   13   -433.663252965645   0.0080818942  0.937352   0.0174196824
    6    6   -433.663264142832   0.0001058594  1.008727   0.0007855563
    7    0   -433.663264152455   0.0000093381  1.000000   0.0000000000


  ITER  INDGCM  GCIMAX      GCINRM     INDGOM  GOBMAX      GOBNRM      GRDNRM
 ------------------------------------------------------------------------------
    1     25    0.001911    0.003874   2644   -0.059358    0.418816    0.418834
    2     26   -0.085838    0.090149   1512   -0.008415    0.047196    0.101756
    3     32   -0.005050    0.010769   1608   -0.001881    0.007790    0.013291
    4     56    0.026353    0.028578   1606    0.003030    0.021341    0.035667
    5     26    0.007390    0.007987   2156   -0.000269    0.001236    0.008082
    6     56   -0.000083    0.000101      2    0.000011    0.000032    0.000106
    7     56    0.000003    0.000007   2589    0.000001    0.000006    0.000009


  ITER ITMIC NCLIN NOLIN   TIMMAC    TIMITR    TIMMIC    TIMLIN    TIMMIC/ITMIC
 ------------------------------------------------------------------------------

    1     5     1     4    297.02     95.20    173.03    144.20     34.61
    2     5     2     4    299.72     95.75    175.16    146.33     35.03
    3     3     1     3    242.42     95.58    118.20     89.59     39.40
    4     5     2     4    297.83     94.91    174.25    145.50     34.85
    5    13     6     8    521.25     95.39    397.23    368.58     30.56
    6     6     3     4    323.55     94.88    200.06    171.45     33.34
    7     0     0     0    123.45     94.88      0.00      0.00


 ITER         EMY                 EACTIV              EMCSCF

    1   -838.866434512023    -15.274507990210   -433.648939473437
    2   -838.460416541453    -15.692328230584   -433.660741743241
    3   -838.518755114146    -15.635527884403   -433.662279969752
    4   -838.343383189070    -15.811562419941   -433.662942580215
    5   -838.369037568810    -15.786218425632   -433.663252965645
    6   -838.369898257964    -15.785368913664   -433.663264142832
    7   -838.370157549186    -15.785109632065   -433.663264152455


 ITER         DEPRED              DEACT               RATIO

    1      0.000000000000      0.000000000000      0.000000000000
    2     -0.015704426453     -0.011802269803      0.751525045413
    3     -0.001448480213     -0.001538226511      1.061958939556
    4     -0.002360222308     -0.000662610463      0.280740700142
    5     -0.000331130197     -0.000310385430      0.937351629784
    6     -0.000011080486     -0.000011177187      1.008727125537
    7     -0.000000009643     -0.000000009623      1.000000000000


 ITER    BETA           GAMMA             STPLNG              RTRUST

    1      0.60953731  1.00000000      0.768526578991      0.700000000000
    2      0.20000000  1.00000000      0.159097596643      0.700000000000
    3      3.24725454  1.00000000      0.743363095090      0.700000000000
    4      0.20000000  1.00000000      0.146346023224      0.469000000000
    5      0.20000000  1.00000000      0.017419682414      0.562800000000
    6      0.20000000  1.00000000      0.000785556325      0.700000000000
    7      0.00000000  0.00000000      0.000000000000      0.700000000000


 Reduced L root no.  1
 ITER         EVAL              EVEC(1)           EVEC(2)           EVEC(3)
 ----------------------------------------------------------------------------
    1   -0.009569555462    0.905564835308   -0.416266446102   -0.013904761933
    2   -0.000115761211    0.999494143191   -0.003538088140   -0.024074950654
    3   -0.007291124455   -0.382727325175    0.007976484491    0.463507307211
    4   -0.000026467741    0.999571931850   -0.000723658511   -0.028805094672
    5   -0.000000886428    0.999993931149   -0.000367879944   -0.002890295165
    6   -0.000000000771    0.999999987658   -0.000009700540   -0.000154006401
    7    0.000000000000    0.000000000000    0.000000000000    0.000000000000


                       .-----------------------------------.
                       | --- Final results from SIRIUS --- |
                       `-----------------------------------'


@    Spin multiplicity:           1
@    Spatial symmetry:            1 ( irrep  A1  in C2v )
@    Total charge of molecule:    0
@    State number:                1

@    Final MCSCF energy:         -433.663264152455                 
@    Nuclear repulsion:           420.492003028797
@    Electronic energy:          -854.155267181251

@    Final gradient norm:           0.000009338104

 
     Date and time (Linux)  : Fri Jan 10 16:50:59 2020
     Host name              : Lab2-333-NPs                            

 Occupancies of natural orbitals
 -------------------------------

 Symmetry 1  ( A1 ) -- Total occupation in this symmetry is  31.996022490

   2.000000000   2.000000000   2.000000000   2.000000000   2.000000000
[...]

 GP * SOLUTION vector at frequency     0.00000 a.u.
 after   14 linear transformations is      2.16468082D+03
 INERTIA (POS,ZER,NEG) of reduced matrix is   27    0    1
 Determinant of reduced matrix is -8.34 * 10 **-22.0

       No.  Residual tot.,    conf., and orb.    Bnorm      Frequency 
      ----------------------------------------------------------------
         1    8.79442D-01  7.83D-02  8.76D-01  1.29D+02    0.00000D+00

 ** RSPCTL MICROITERATION NUMBER   14

 *** INFO, negative eigenvalues in reduced matrix. Symmetry  4,  triplet       F Dimension of reduced matrix =    30

 GP * SOLUTION vector at frequency     0.00000 a.u.
 after   15 linear transformations is      2.16582906D+03
 INERTIA (POS,ZER,NEG) of reduced matrix is   29    0    1
 Determinant of reduced matrix is -6.76 * 10 **-26.0

       No.  Residual tot.,    conf., and orb.    Bnorm      Frequency 
      ----------------------------------------------------------------
         1    1.39021D+00  3.08D-01  1.36D+00  1.37D+02    0.00000D+00

 ** RSPCTL MICROITERATION NUMBER   15

 *** INFO, negative eigenvalues in reduced matrix. Symmetry  4,  triplet       F Dimension of reduced matrix =    32

 GP * SOLUTION vector at frequency     0.00000 a.u.
 after   16 linear transformations is      2.16766236D+03
 INERTIA (POS,ZER,NEG) of reduced matrix is   30    0    2
 Determinant of reduced matrix is  4.71 * 10 **-29.0

       No.  Residual tot.,    conf., and orb.    Bnorm      Frequency 
      ----------------------------------------------------------------
         1    1.57853D+00  6.14D-01  1.45D+00  1.74D+02    0.00000D+00

 ** RSPCTL MICROITERATION NUMBER   16

 *** INFO, negative eigenvalues in reduced matrix. Symmetry  4,  triplet       F Dimension of reduced matrix =    34

 GP * SOLUTION vector at frequency     0.00000 a.u.
 after   17 linear transformations is      2.16872181D+03
 INERTIA (POS,ZER,NEG) of reduced matrix is   32    0    2
 Determinant of reduced matrix is  2.02 * 10 **-31.0

       No.  Residual tot.,    conf., and orb.    Bnorm      Frequency 
      ----------------------------------------------------------------
         1    8.57373D-01  7.04D-01  4.90D-01  1.93D+02    0.00000D+00

 ** RSPCTL MICROITERATION NUMBER   17

 *** INFO, negative eigenvalues in reduced matrix. Symmetry  4,  triplet       F Dimension of reduced matrix =    36

 GP * SOLUTION vector at frequency     0.00000 a.u.
 after   18 linear transformations is      2.16903617D+03
 INERTIA (POS,ZER,NEG) of reduced matrix is   34    0    2
 Determinant of reduced matrix is  3.49 * 10 **-31.0

       No.  Residual tot.,    conf., and orb.    Bnorm      Frequency 
      ----------------------------------------------------------------
         1    5.45587D-01  2.19D-01  5.00D-01  1.99D+02    0.00000D+00

 ** RSPCTL MICROITERATION NUMBER   18

 *** INFO, negative eigenvalues in reduced matrix. Symmetry  4,  triplet       F Dimension of reduced matrix =    38

 GP * SOLUTION vector at frequency     0.00000 a.u.
 after   19 linear transformations is      2.16922125D+03
 INERTIA (POS,ZER,NEG) of reduced matrix is   36    0    2
 Determinant of reduced matrix is  2.07 * 10 **-33.0

       No.  Residual tot.,    conf., and orb.    Bnorm      Frequency 
      ----------------------------------------------------------------
         1    3.11720D-01  2.42D-01  1.97D-01  2.03D+02    0.00000D+00

 ** RSPCTL MICROITERATION NUMBER   19

 *** INFO, negative eigenvalues in reduced matrix. Symmetry  4,  triplet       F Dimension of reduced matrix =    40

 GP * SOLUTION vector at frequency     0.00000 a.u.
 after   20 linear transformations is      2.16925287D+03
 INERTIA (POS,ZER,NEG) of reduced matrix is   38    0    2
 Determinant of reduced matrix is  5.58 * 10 **-33.0

       No.  Residual tot.,    conf., and orb.    Bnorm      Frequency 
      ----------------------------------------------------------------
         1    2.15922D-01  6.72D-02  2.05D-01  2.03D+02    0.00000D+00

 ** RSPCTL MICROITERATION NUMBER   20

 *** INFO, negative eigenvalues in reduced matrix. Symmetry  4,  triplet       F Dimension of reduced matrix =    42

 GP * SOLUTION vector at frequency     0.00000 a.u.
 after   21 linear transformations is      2.16926854D+03
 INERTIA (POS,ZER,NEG) of reduced matrix is   40    0    2
 Determinant of reduced matrix is  1.29 * 10 **-35.0

       No.  Residual tot.,    conf., and orb.    Bnorm      Frequency 
      ----------------------------------------------------------------
         1    8.77797D-02  6.58D-02  5.81D-02  2.03D+02    0.00000D+00

 *** THE REQUESTED    1 SOLUTION VECTORS CONVERGED

 Convergence of RSP solution vectors, threshold = 1.00D-03
 ---------------------------------------------------------------
 (dimension of paired reduced space:   42)
 RSP solution vector no.    1; norm of residual   4.32D-04

 *** RSPCTL MICROITERATIONS CONVERGED
    XDIPLEN     YDIPLEN      freq1     freq2                Norm
 ---------------------------------------------------------------
                          0.058400 -0.058400        203.18471825


 Perturbation symmetry.     KSYMOP:       1
 Perturbation spin symmetry.TRPLET:       F
 Orbital variables.         KZWOPT:    2762
 Configuration variables.   KZCONF:     115
 Total number of variables. KZVAR :    2877


 CRLRV2 -- linear response calc for sym:  1
 CRLRV2 -- operator label1: YDIPLEN 
 CRLRV2 -- operator label2: YDIPLEN 
 CRLRV2 -- freqr1 :   5.840000D-02
 CRLRV2 -- freqr2 :   5.840000D-02



 ---  SOLVING SETS OF LINEAR EQUATIONS FOR LINEAR RESPONSE PROPERTIES ---

 Operator symmetry = 1  ( A1 ); triplet =   F


 ** RSPCTL MICROITERATION NUMBER    1

       No.  Residual tot.,    conf., and orb.    Bnorm      Frequency 
      ----------------------------------------------------------------
         1    1.81239D+01  1.04D+00  1.81D+01  9.71D+01    1.16800D-01

 ** RSPCTL MICROITERATION NUMBER    2

       No.  Residual tot.,    conf., and orb.    Bnorm      Frequency 
      ----------------------------------------------------------------
         1    7.93913D+00  1.08D+00  7.87D+00  1.03D+02    1.16800D-01

 ** RSPCTL MICROITERATION NUMBER    3

       No.  Residual tot.,    conf., and orb.    Bnorm      Frequency 
      ----------------------------------------------------------------
         1    2.59961D+00  1.13D+00  2.34D+00  1.05D+02    1.16800D-01

 ** RSPCTL MICROITERATION NUMBER    4

       No.  Residual tot.,    conf., and orb.    Bnorm      Frequency 
      ----------------------------------------------------------------
         1    1.62506D+00  1.22D+00  1.08D+00  1.05D+02    1.16800D-01

 ** RSPCTL MICROITERATION NUMBER    5

       No.  Residual tot.,    conf., and orb.    Bnorm      Frequency 
      ----------------------------------------------------------------
         1    1.60106D+00  4.44D-01  1.54D+00  1.05D+02    1.16800D-01

 ** RSPCTL MICROITERATION NUMBER    6

       No.  Residual tot.,    conf., and orb.    Bnorm      Frequency 
      ----------------------------------------------------------------
         1    1.00275D+00  5.26D-01  8.54D-01  1.05D+02    1.16800D-01

 ** RSPCTL MICROITERATION NUMBER    7

       No.  Residual tot.,    conf., and orb.    Bnorm      Frequency 
      ----------------------------------------------------------------
         1    6.66244D-01  5.44D-01  3.84D-01  1.05D+02    1.16800D-01

 ** RSPCTL MICROITERATION NUMBER    8

       No.  Residual tot.,    conf., and orb.    Bnorm      Frequency 
      ----------------------------------------------------------------
         1    4.46357D-01  1.35D-01  4.26D-01  1.05D+02    1.16800D-01

 ** RSPCTL MICROITERATION NUMBER    9

       No.  Residual tot.,    conf., and orb.    Bnorm      Frequency 
      ----------------------------------------------------------------
         1    2.05505D-01  1.36D-01  1.54D-01  1.05D+02    1.16800D-01

 ** RSPCTL MICROITERATION NUMBER   10

       No.  Residual tot.,    conf., and orb.    Bnorm      Frequency 
      ----------------------------------------------------------------
         1    1.47248D-01  1.34D-01  6.07D-02  1.05D+02    1.16800D-01

 ** RSPCTL MICROITERATION NUMBER   11

       No.  Residual tot.,    conf., and orb.    Bnorm      Frequency 
      ----------------------------------------------------------------
         1    9.59606D-02  4.57D-02  8.44D-02  1.05D+02    1.16800D-01

 *** THE REQUESTED    1 SOLUTION VECTORS CONVERGED

 Convergence of RSP solution vectors, threshold = 1.00D-03
 ---------------------------------------------------------------
 (dimension of paired reduced space:   24)
 RSP solution vector no.    1; norm of residual   9.11D-04

 *** RSPCTL MICROITERATIONS CONVERGED
    YDIPLEN     YDIPLEN      freq1     freq2                Norm
 ---------------------------------------------------------------
                          0.058400  0.058400        105.39270485
  Time used in CRVEC2     is       2 hours 34 minutes 48 seconds


 ----- CALCULATING CONTRIBUTIONS TO SECOND HYPERPOLARIZABILITY -----


   Contribution                Term         Accumulated
 ------------------------------------------------------
 Na T[4] Nb Nc Nd    -6471.65782103      -6471.65782103
 Na T[3] Nx Nyz       8268.59786257       1796.94004154
 Na X[3] Ny Nz       17213.85497721      19010.79501875
 Nx A[3] Ny Nz        5737.95165907      24748.74667782
 Na X[2] Nyz        -27862.89438779      -3114.14770997
 Nx A[2] Nyz        -27681.67964325     -30795.82735322

@ Cubic response function value in a.u. for
@ A operator, symmetry, frequency:   ZDIPLEN    1 -0.058400
@ B operator, symmetry, frequency:   ZDIPLEN    1  0.058400
@ C operator, symmetry, frequency:   ZDIPLEN    1 -0.058400
@ D operator, symmetry, frequency:   ZDIPLEN    1  0.058400

@ << A; B, C, D >>  =      -30795.82735322



   Contribution                Term         Accumulated
 ------------------------------------------------------
 Na T[4] Nb Nc Nd      -88.38910534        -88.38910534
 Na T[3] Nx Nyz       5500.60281166       5412.21370632
 Na X[3] Ny Nz        4196.35874672       9608.57245305
 Nx A[3] Ny Nz         245.95051371       9854.52296675
 Na X[2] Nyz        -35735.37707629     -25880.85410954
 Nx A[2] Nyz         25187.75432228       -693.09978726

@ Cubic response function value in a.u. for
@ A operator, symmetry, frequency:   XDIPLEN    2 -0.058400
@ B operator, symmetry, frequency:   XDIPLEN    2  0.058400
@ C operator, symmetry, frequency:   ZDIPLEN    1 -0.058400
@ D operator, symmetry, frequency:   ZDIPLEN    1  0.058400

@ << A; B, C, D >>  =        -693.09978726



   Contribution                Term         Accumulated
 ------------------------------------------------------
 Na T[4] Nb Nc Nd     -511.73816509       -511.73816509
 Na T[3] Nx Nyz       1126.06874039        614.33057531
 Na X[3] Ny Nz         790.96773574       1405.29831105
 Nx A[3] Ny Nz         345.68660386       1750.98491491
 Na X[2] Nyz         -3752.61028795      -2001.62537304
 Nx A[2] Nyz         -5052.65646834      -7054.28184138

@ Cubic response function value in a.u. for
@ A operator, symmetry, frequency:   YDIPLEN    3 -0.058400
@ B operator, symmetry, frequency:   YDIPLEN    3  0.058400
@ C operator, symmetry, frequency:   ZDIPLEN    1 -0.058400
@ D operator, symmetry, frequency:   ZDIPLEN    1  0.058400

@ << A; B, C, D >>  =       -7054.28184138



   Contribution                Term         Accumulated
 ------------------------------------------------------
 Na T[4] Nb Nc Nd       63.32395583         63.32395583
 Na T[3] Nx Nyz       5900.10316038       5963.42711622
 Na X[3] Ny Nz        3670.42259593       9633.84971214
 Nx A[3] Ny Nz         -76.62833132       9557.22138083
 Na X[2] Nyz        -40089.81337417     -30532.59199334
 Nx A[2] Nyz         30567.45286369         34.86087035

@ Cubic response function value in a.u. for
@ A operator, symmetry, frequency:   XDIPLEN    2 -0.058400
@ B operator, symmetry, frequency:   ZDIPLEN    1  0.058400
@ C operator, symmetry, frequency:   XDIPLEN    2 -0.058400
@ D operator, symmetry, frequency:   ZDIPLEN    1  0.058400

@ << A; B, C, D >>  =          34.86087035



   Contribution                Term         Accumulated
 ------------------------------------------------------
 Na T[4] Nb Nc Nd     -455.66009222       -455.66009222
 Na T[3] Nx Nyz       1189.97630426        734.31621204
 Na X[3] Ny Nz         705.70900343       1440.02521547
 Nx A[3] Ny Nz         280.06407389       1720.08928936
 Na X[2] Nyz         -3756.24995030      -2036.16066093
 Nx A[2] Nyz         -4910.07709776      -6946.23775870

@ Cubic response function value in a.u. for
@ A operator, symmetry, frequency:   YDIPLEN    3 -0.058400
@ B operator, symmetry, frequency:   ZDIPLEN    1  0.058400
@ C operator, symmetry, frequency:   YDIPLEN    3 -0.058400
@ D operator, symmetry, frequency:   ZDIPLEN    1  0.058400

@ << A; B, C, D >>  =       -6946.23775870



   Contribution                Term         Accumulated
 ------------------------------------------------------
 Na T[4] Nb Nc Nd      903.99993611        903.99993611
 Na T[3] Nx Nyz     -16521.89270335     -15617.89276725
 Na X[3] Ny Nz        4177.08773179     -11440.80503546
 Nx A[3] Ny Nz        2692.46510722      -8748.33992824
 Na X[2] Nyz         42576.79975628      33828.45982804
 Nx A[2] Nyz        -33791.03118253         37.42864551

@ Cubic response function value in a.u. for
@ A operator, symmetry, frequency:   ZDIPLEN    1 -0.058400
@ B operator, symmetry, frequency:   XDIPLEN    2  0.058400
@ C operator, symmetry, frequency:   ZDIPLEN    1 -0.058400
@ D operator, symmetry, frequency:   XDIPLEN    2  0.058400

@ << A; B, C, D >>  =          37.42864551



   Contribution                Term         Accumulated
 ------------------------------------------------------
 Na T[4] Nb Nc Nd    -2245.06410491      -2245.06410491
 Na T[3] Nx Nyz      -7941.24525928     -10186.30936419
 Na X[3] Ny Nz       19002.28054030       8815.97117611
 Nx A[3] Ny Nz        6334.09351343      15150.06468954
 Na X[2] Nyz        -10424.44824691       4725.61644263
 Nx A[2] Nyz        -13883.57114761      -9157.95470498

@ Cubic response function value in a.u. for
@ A operator, symmetry, frequency:   XDIPLEN    2 -0.058400
@ B operator, symmetry, frequency:   XDIPLEN    2  0.058400
@ C operator, symmetry, frequency:   XDIPLEN    2 -0.058400
@ D operator, symmetry, frequency:   XDIPLEN    2  0.058400

@ << A; B, C, D >>  =       -9157.95470498



   Contribution                Term         Accumulated
 ------------------------------------------------------
 Na T[4] Nb Nc Nd     -220.74207728       -220.74207728
 Na T[3] Nx Nyz       1116.83810119        896.09602391
 Na X[3] Ny Nz         457.35537701       1353.45140093
 Nx A[3] Ny Nz          94.66628016       1448.11768108
 Na X[2] Nyz         -3495.76094630      -2047.64326521
 Nx A[2] Nyz         -4383.49009438      -6431.13335959

@ Cubic response function value in a.u. for
@ A operator, symmetry, frequency:   YDIPLEN    3 -0.058400
@ B operator, symmetry, frequency:   YDIPLEN    3  0.058400
@ C operator, symmetry, frequency:   XDIPLEN    2 -0.058400
@ D operator, symmetry, frequency:   XDIPLEN    2  0.058400

@ << A; B, C, D >>  =       -6431.13335959



   Contribution                Term         Accumulated
 ------------------------------------------------------
 Na T[4] Nb Nc Nd     -198.94828664       -198.94828664
 Na T[3] Nx Nyz       1157.71585706        958.76757042
 Na X[3] Ny Nz         405.14030142       1363.90787184
 Nx A[3] Ny Nz          61.08731251       1424.99518435
 Na X[2] Nyz         -3408.46896850      -1983.47378416
 Nx A[2] Nyz         -4173.91098400      -6157.38476816

@ Cubic response function value in a.u. for
@ A operator, symmetry, frequency:   YDIPLEN    3 -0.058400
@ B operator, symmetry, frequency:   XDIPLEN    2  0.058400
@ C operator, symmetry, frequency:   YDIPLEN    3 -0.058400
@ D operator, symmetry, frequency:   XDIPLEN    2  0.058400

@ << A; B, C, D >>  =       -6157.38476816



   Contribution                Term         Accumulated
 ------------------------------------------------------
 Na T[4] Nb Nc Nd     -341.26075038       -341.26075038
 Na T[3] Nx Nyz        626.65005203        285.38930166
 Na X[3] Ny Nz        1008.50423185       1293.89353351
 Nx A[3] Ny Nz         291.34033787       1585.23387138
 Na X[2] Nyz         -4724.57626830      -3139.34239692
 Nx A[2] Nyz         -3806.69195387      -6946.03435079

@ Cubic response function value in a.u. for
@ A operator, symmetry, frequency:   ZDIPLEN    1 -0.058400
@ B operator, symmetry, frequency:   YDIPLEN    3  0.058400
@ C operator, symmetry, frequency:   ZDIPLEN    1 -0.058400
@ D operator, symmetry, frequency:   YDIPLEN    3  0.058400

@ << A; B, C, D >>  =       -6946.03435079



   Contribution                Term         Accumulated
 ------------------------------------------------------
 Na T[4] Nb Nc Nd     -120.17938512       -120.17938512
 Na T[3] Nx Nyz       1059.36973406        939.19034894
 Na X[3] Ny Nz         166.46128769       1105.65163663
 Nx A[3] Ny Nz         129.44655052       1235.09818715
 Na X[2] Nyz         -4071.72146664      -2836.62327949
 Nx A[2] Nyz         -3321.40482292      -6158.02810240

@ Cubic response function value in a.u. for
@ A operator, symmetry, frequency:   XDIPLEN    2 -0.058400
@ B operator, symmetry, frequency:   YDIPLEN    3  0.058400
@ C operator, symmetry, frequency:   XDIPLEN    2 -0.058400
@ D operator, symmetry, frequency:   YDIPLEN    3  0.058400

@ << A; B, C, D >>  =       -6158.02810240



   Contribution                Term         Accumulated
 ------------------------------------------------------
 Na T[4] Nb Nc Nd     -516.43212677       -516.43212677
 Na T[3] Nx Nyz       2551.82980000       2035.39767324
 Na X[3] Ny Nz        1748.25193992       3783.64961315
 Nx A[3] Ny Nz         582.75064664       4366.40025979
 Na X[2] Nyz         -8034.49404198      -3668.09378219
 Nx A[2] Nyz         -8126.24803960     -11794.34182179

@ Cubic response function value in a.u. for
@ A operator, symmetry, frequency:   YDIPLEN    3 -0.058400
@ B operator, symmetry, frequency:   YDIPLEN    3  0.058400
@ C operator, symmetry, frequency:   YDIPLEN    3 -0.058400
@ D operator, symmetry, frequency:   YDIPLEN    3  0.058400

@ << A; B, C, D >>  =      -11794.34182179



  Summary of gamma values for a set of frequencies
 -------------------------------------------------

@ B-freq:  0.058400
@ C-freq: -0.058400
@ D-freq:  0.058400

@ gamma(X;X,X,X)       9157.9547
@ gamma(X;X,Y,Y)       6431.1334
@ gamma(X;Y,Y,X)       6431.1334
@ gamma(X;Y,X,Y)       6158.0281
@ gamma(X;X,Z,Z)        693.0998
@ gamma(X;Z,Z,X)        693.0998
@ gamma(X;Z,X,Z)        -34.8609
@ gamma(Y;Y,X,X)       6431.1334
@ gamma(Y;X,X,Y)       6431.1334
@ gamma(Y;X,Y,X)       6157.3848
@ gamma(Y;Y,Y,Y)      11794.3418
@ gamma(Y;Y,Z,Z)       7054.2818
@ gamma(Y;Z,Z,Y)       7054.2818
@ gamma(Y;Z,Y,Z)       6946.2378
@ gamma(Z;Z,X,X)        693.0998
@ gamma(Z;X,X,Z)        693.0998
@ gamma(Z;X,Z,X)        -37.4286
@ gamma(Z;Z,Y,Y)       7054.2818
@ gamma(Z;Y,Y,Z)       7054.2818
@ gamma(Z;Y,Z,Y)       6946.0344
@ gamma(Z;Z,Z,Z)      30795.8274

@ Averaged gamma parallel to the applied field is     15872.921804

  Total CPU  time used in RESPONSE:   7 hours 11 minutes 42 seconds
  Total wall time used in RESPONSE:   7 hours 11 minutes 51 seconds


                   .-------------------------------------------.
                   | End of Dynamic Property Section (RESPONS) |
                   `-------------------------------------------'

  Total CPU  time used in DALTON:   8 hours  3 minutes 23 seconds
  Total wall time used in DALTON:   8 hours  3 minutes 37 seconds

 
     Date and time (Linux)  : Sat Jan 11 00:02:51 2020
     Host name              : Lab2-333-NPs                            
