

     ************************************************************************
     *************** Dalton - An Electronic Structure Program ***************
     ************************************************************************

    This is output from DALTON release Dalton2018.1 (2019)
         ( Web site: http://daltonprogram.org )

   ----------------------------------------------------------------------------

    NOTE:
     
    Dalton is an experimental code for the evaluation of molecular
    properties using (MC)SCF, DFT, CI, and CC wave functions.
    The authors accept no responsibility for the performance of
    the code or for the correctness of the results.
     
    The code (in whole or part) is provided under a licence and
    is not to be reproduced for further distribution without
    the written permission of the authors or their representatives.
     
    See the home page "http://daltonprogram.org" for further information.
     
    If results obtained with this code are published,
    the appropriate citations would be both of:
     
       K. Aidas, C. Angeli, K. L. Bak, V. Bakken, R. Bast,
       L. Boman, O. Christiansen, R. Cimiraglia, S. Coriani,
       P. Dahle, E. K. Dalskov, U. Ekstroem,
       T. Enevoldsen, J. J. Eriksen, P. Ettenhuber, B. Fernandez,
       L. Ferrighi, H. Fliegl, L. Frediani, K. Hald, A. Halkier,
       C. Haettig, H. Heiberg, T. Helgaker, A. C. Hennum,
       H. Hettema, E. Hjertenaes, S. Hoest, I.-M. Hoeyvik,
       M. F. Iozzi, B. Jansik, H. J. Aa. Jensen, D. Jonsson,
       P. Joergensen, J. Kauczor, S. Kirpekar,
       T. Kjaergaard, W. Klopper, S. Knecht, R. Kobayashi, H. Koch,
       J. Kongsted, A. Krapp, K. Kristensen, A. Ligabue,
       O. B. Lutnaes, J. I. Melo, K. V. Mikkelsen, R. H. Myhre,
       C. Neiss, C. B. Nielsen, P. Norman, J. Olsen,
       J. M. H. Olsen, A. Osted, M. J. Packer, F. Pawlowski,
       T. B. Pedersen, P. F. Provasi, S. Reine, Z. Rinkevicius,
       T. A. Ruden, K. Ruud, V. Rybkin, P. Salek, C. C. M. Samson,
       A. Sanchez de Meras, T. Saue, S. P. A. Sauer,
       B. Schimmelpfennig, K. Sneskov, A. H. Steindal,
       K. O. Sylvester-Hvid, P. R. Taylor, A. M. Teale,
       E. I. Tellgren, D. P. Tew, A. J. Thorvaldsen, L. Thoegersen,
       O. Vahtras, M. A. Watson, D. J. D. Wilson, M. Ziolkowski
       and H. Agren,
       "The Dalton quantum chemistry program system",
       WIREs Comput. Mol. Sci. 2014, 4:269–284 (doi: 10.1002/wcms.1172)
     
    and
     
       Dalton, a molecular electronic structure program,
       Release Dalton2018.1 (2019), see http://daltonprogram.org
   ----------------------------------------------------------------------------

    Authors in alphabetical order (major contribution(s) in parenthesis):

  Kestutis Aidas,           Vilnius University,           Lithuania   (QM/MM)
  Celestino Angeli,         University of Ferrara,        Italy       (NEVPT2)
  Keld L. Bak,              UNI-C,                        Denmark     (AOSOPPA, non-adiabatic coupling, magnetic properties)
  Vebjoern Bakken,          University of Oslo,           Norway      (DALTON; geometry optimizer, symmetry detection)
  Radovan Bast,             UiT The Arctic U. of Norway,  Norway      (DALTON installation and execution frameworks)
  Pablo Baudin,             University of Valencia,       Spain       (Cholesky excitation energies)
  Linus Boman,              NTNU,                         Norway      (Cholesky decomposition and subsystems)
  Ove Christiansen,         Aarhus University,            Denmark     (CC module)
  Renzo Cimiraglia,         University of Ferrara,        Italy       (NEVPT2)
  Sonia Coriani,            Technical Univ. of Denmark,   Denmark     (CC module, MCD in RESPONS)
  Janusz Cukras,            University of Trieste,        Italy       (MChD in RESPONS)
  Paal Dahle,               University of Oslo,           Norway      (Parallelization)
  Erik K. Dalskov,          UNI-C,                        Denmark     (SOPPA)
  Thomas Enevoldsen,        Univ. of Southern Denmark,    Denmark     (SOPPA)
  Janus J. Eriksen,         Aarhus University,            Denmark     (Polarizable embedding model, TDA)
  Rasmus Faber,             University of Copenhagen,     Denmark     (Vib.avg. NMR with SOPPA, parallel AO-SOPPA)
  Tobias Fahleson,          KTH Stockholm,                Sweden      (Damped cubic response)
  Berta Fernandez,          U. of Santiago de Compostela, Spain       (doublet spin, ESR in RESPONS)
  Lara Ferrighi,            Aarhus University,            Denmark     (PCM Cubic response)
  Heike Fliegl,             University of Oslo,           Norway      (CCSD(R12))
  Luca Frediani,            UiT The Arctic U. of Norway,  Norway      (PCM)
  Bin Gao,                  UiT The Arctic U. of Norway,  Norway      (Gen1Int library)
  Christof Haettig,         Ruhr-University Bochum,       Germany     (CC module)
  Kasper Hald,              Aarhus University,            Denmark     (CC module)
  Asger Halkier,            Aarhus University,            Denmark     (CC module)
  Frederik Beyer Hansen,    University of Copenhagen,     Denmark     (Parallel AO-SOPPA)
  Erik D. Hedegaard,        Univ. of Southern Denmark,    Denmark     (Polarizable embedding model, QM/MM)
  Hanne Heiberg,            University of Oslo,           Norway      (geometry analysis, selected one-electron integrals)
  Trygve Helgaker,          University of Oslo,           Norway      (DALTON; ABACUS, ERI, DFT modules, London, and much more)
  Alf Christian Hennum,     University of Oslo,           Norway      (Parity violation)
  Hinne Hettema,            University of Auckland,       New Zealand (quadratic response in RESPONS; SIRIUS supersymmetry)
  Eirik Hjertenaes,         NTNU,                         Norway      (Cholesky decomposition)
  Pi A. B. Haase,           University of Copenhagen,     Denmark     (Triplet AO-SOPPA)
  Maria Francesca Iozzi,    University of Oslo,           Norway      (RPA)
  Christoph Jacob           TU Braunschweig               Germany     (Frozen density embedding model)
  Brano Jansik              Technical Univ. of Ostrava    Czech Rep.  (DFT cubic response)
  Hans Joergen Aa. Jensen,  Univ. of Southern Denmark,    Denmark     (DALTON; SIRIUS, RESPONS, ABACUS modules, London, and much more)
  Dan Jonsson,              UiT The Arctic U. of Norway,  Norway      (cubic response in RESPONS module)
  Poul Joergensen,          Aarhus University,            Denmark     (RESPONS, ABACUS, and CC modules)
  Maciej Kaminski,          University of Warsaw,         Poland      (CPPh in RESPONS)
  Joanna Kauczor,           Linkoeping University,        Sweden      (Complex polarization propagator (CPP) module)
  Sheela Kirpekar,          Univ. of Southern Denmark,    Denmark     (Mass-velocity & Darwin integrals)
  Wim Klopper,              KIT Karlsruhe,                Germany     (R12 code in CC, SIRIUS, and ABACUS modules)
  Stefan Knecht,            ETH Zurich,                   Switzerland (Parallel CI and MCSCF)
  Rika Kobayashi,           Australian National Univ.,    Australia   (DIIS in CC, London in MCSCF)
  Henrik Koch,              NTNU,                         Norway      (CC module, Cholesky decomposition)
  Jacob Kongsted,           Univ. of Southern Denmark,    Denmark     (Polarizable embedding model, QM/MM)
  Andrea Ligabue,           University of Modena,         Italy       (CTOCD, AOSOPPA)
  Nanna H. List             Univ. of Southern Denmark,    Denmark     (Polarizable embedding model)
  Ola B. Lutnaes,           University of Oslo,           Norway      (DFT Hessian)
  Juan I. Melo,             University of Buenos Aires,   Argentina   (LRESC, Relativistic Effects on NMR Shieldings)
  Kurt V. Mikkelsen,        University of Copenhagen,     Denmark     (MC-SCRF and QM/MM)
  Rolf H. Myhre,            NTNU,                         Norway      (Subsystems and CC3)
  Christian Neiss,          Univ. Erlangen-Nuernberg,     Germany     (CCSD(R12))
  Christian B. Nielsen,     University of Copenhagen,     Denmark     (QM/MM)
  Patrick Norman,           KTH Stockholm,                Sweden      (Cubic response and complex frequency response in RESPONS)
  Jeppe Olsen,              Aarhus University,            Denmark     (SIRIUS CI/density modules)
  Jogvan Magnus H. Olsen,   Univ. of Southern Denmark,    Denmark     (Polarizable embedding model, QM/MM)
  Anders Osted,             Copenhagen University,        Denmark     (QM/MM)
  Martin J. Packer,         University of Sheffield,      UK          (SOPPA)
  Filip Pawlowski,          Kazimierz Wielki University,  Poland      (CC3)
  Morten N. Pedersen,       Univ. of Southern Denmark,    Denmark     (Polarizable embedding model)
  Thomas B. Pedersen,       University of Oslo,           Norway      (Cholesky decomposition)
  Patricio F. Provasi,      University of Northeastern,   Argentina   (Analysis of coupling constants in localized orbitals)
  Zilvinas Rinkevicius,     KTH Stockholm,                Sweden      (open-shell DFT, ESR)
  Elias Rudberg,            KTH Stockholm,                Sweden      (DFT grid and basis info)
  Torgeir A. Ruden,         University of Oslo,           Norway      (Numerical derivatives in ABACUS)
  Kenneth Ruud,             UiT The Arctic U. of Norway,  Norway      (DALTON; ABACUS magnetic properties and much more)
  Pawel Salek,              KTH Stockholm,                Sweden      (DALTON; DFT code)
  Claire C. M. Samson       University of Karlsruhe       Germany     (Boys localization, r12 integrals in ERI)
  Alfredo Sanchez de Meras, University of Valencia,       Spain       (CC module, Cholesky decomposition)
  Trond Saue,               Paul Sabatier University,     France      (direct Fock matrix construction)
  Stephan P. A. Sauer,      University of Copenhagen,     Denmark     (SOPPA(CCSD), SOPPA prop., AOSOPPA, vibrational g-factors)
  Andre S. P. Gomes,        CNRS/Universite de Lille,     France      (Frozen density embedding model)
  Bernd Schimmelpfennig,    Forschungszentrum Karlsruhe,  Germany     (AMFI module)
  Kristian Sneskov,         Aarhus University,            Denmark     (Polarizable embedding model, QM/MM)
  Arnfinn H. Steindal,      UiT The Arctic U. of Norway,  Norway      (parallel QM/MM, Polarizable embedding model)
  Casper Steinmann,         Univ. of Southern Denmark,    Denmark     (QFIT, Polarizable embedding model)
  K. O. Sylvester-Hvid,     University of Copenhagen,     Denmark     (MC-SCRF)
  Peter R. Taylor,          VLSCI/Univ. of Melbourne,     Australia   (Symmetry handling ABACUS, integral transformation)
  Andrew M. Teale,          University of Nottingham,     England     (DFT-AC, DFT-D)
  David P. Tew,             University of Bristol,        England     (CCSD(R12))
  Olav Vahtras,             KTH Stockholm,                Sweden      (triplet response, spin-orbit, ESR, TDDFT, open-shell DFT)
  Lucas Visscher,           Vrije Universiteit Amsterdam, Netherlands (Frozen density embedding model)
  David J. Wilson,          La Trobe University,          Australia   (DFT Hessian and DFT magnetizabilities)
  Hans Agren,               KTH Stockholm,                Sweden      (SIRIUS module, RESPONS, MC-SCRF solvation model)
 --------------------------------------------------------------------------------

     Date and time (Linux)  : Sun Jan 12 23:48:47 2020
     Host name              : Lab2-333-NPs                            

 * Work memory size             :  1024000000 =  7.629 gigabytes.

 * Directories for basis set searches:
   1) /home/lab333/dalton/build_2018_atlas
   2) /home/lab333/dalton/build_2018_atlas/basis


Compilation information
-----------------------

 Who compiled             | lab333
 Host                     | Lab2-333-NPs
 System                   | Linux-4.4.0-43-Microsoft
 CMake generator          | Unix Makefiles
 Processor                | x86_64
 64-bit integers          | OFF
 MPI                      | OFF
 Fortran compiler         | /usr/bin/gfortran
 Fortran compiler version | GNU Fortran (Ubuntu 7.3.0-27ubuntu1~18.04) 7.3.0
 C compiler               | /usr/bin/gcc
 C compiler version       | gcc (Ubuntu 7.3.0-27ubuntu1~18.04) 7.3.0
 C++ compiler             | /usr/bin/g++
 C++ compiler version     | g++ (Ubuntu 7.3.0-27ubuntu1~18.04) 7.3.0
 BLAS                     | /usr/lib/x86_64-linux-gnu/libf77blas.so;/usr/lib/x
                          | 86_64-linux-gnu/libcblas.so;/usr/lib/x86_64-linux-
                          | gnu/libatlas.so
 LAPACK                   | /usr/lib/x86_64-linux-gnu/libatlas.so;/usr/lib/x86
                          | _64-linux-gnu/atlas/liblapack.so
 Static linking           | OFF
 Last Git revision        | da625bf48c74028e805616daee31bc5d76b3a20d
 Git branch               | (HEAD detached at Dalton2018.1)
 Configuration time       | 2019-01-18 10:20:51.437510


   Content of the .dal input file
 ----------------------------------

**DALTON INPUT
.RUN RESPONSE
.DIRECT
**WAVE FUNCTIONS
.HF
.MP2
.MCSCF
*CONFIGURATION INPUT
.SPIN MULTIPLICITY
3
.SYMMETRY
1
.INACTIVE ORBITALS
15 10 2 0
.CAS SPACE
1 1 2 3
.ELECTRONS
10
*ORBITAL INPUT
.MOSTART
.HUCKEL
*OPTIMIZATION
.DETERMINANTS
.STATE
1
*CI VECTOR
.PLUS COMBINATIONS
**RESPONSE
*CUBIC
.DIPLEN
.BFREQ
1
0.0584
.CFREQ
1
-0.0584
.DFREQ
1
0.0584
**END OF DALTON INPUT


   Content of the .mol file
 ----------------------------

BASIS
aug-cc-pCVDZ
 nitrobenzene
 Generated by the Dalton Input File Plugin for Avogadro
Atomtypes=4 Angstrom Generators=2 X Y
Charge=6.0 Atoms=4
C        0.0000000000            0.0000000000           -0.0265759623
C       -1.2190534920            0.0000000000           -0.6979856948
C       -1.2105095870            0.0000000000           -2.0897394457
C        0.0000000000            0.0000000000           -2.7841484631
Charge=7.0 Atoms=1
N        0.0000000000            0.0000000000            1.4549291696
Charge=8.0 Atoms=1
O       0.4849137089925772            0.0            2.579608474431794
Charge=1.0 Atoms=3
H       -2.1410602955            0.0000000000           -0.1327964319
H       -2.1492827751            0.0000000000           -2.6311811056
H        0.0000000000            0.0000000000           -3.8683953478


       *******************************************************************
       *********** Output from DALTON general input processing ***********
       *******************************************************************

 --------------------------------------------------------------------------------
   Overall default print level:    0
   Print level for DALTON.STAT:    1

    AO-direct calculation (in sections where implemented)
    HERMIT 1- and 2-electron integral sections will be executed
    "Old" integral transformation used (limited to max 255 basis functions)
    Wave function sections will be executed (SIRIUS module)
    Dynamic molecular response properties section will be executed (RESPONSE module)
 --------------------------------------------------------------------------------


   ****************************************************************************
   *************** Output of molecule and basis set information ***************
   ****************************************************************************


    The two title cards from your ".mol" input:
    ------------------------------------------------------------------------
 1:  nitrobenzene                                                           
 2:  Generated by the Dalton Input File Plugin for Avogadro                 
    ------------------------------------------------------------------------

  Coordinates are entered in Angstrom and converted to atomic units.
          - Conversion factor : 1 bohr = 0.52917721 A

  Atomic type no.    1
  --------------------
  Nuclear charge:   6.00000
  Number of symmetry independent centers:    4
  Number of basis sets to read;    2
  Basis set file used for this atomic type with Z =   6 :
     "/home/lab333/dalton/build_2018_atlas/basis/aug-cc-pCVDZ"

  Atomic type no.    2
  --------------------
  Nuclear charge:   7.00000
  Number of symmetry independent centers:    1
  Number of basis sets to read;    2
  Basis set file used for this atomic type with Z =   7 :
     "/home/lab333/dalton/build_2018_atlas/basis/aug-cc-pCVDZ"

  Atomic type no.    3
  --------------------
  Nuclear charge:   8.00000
  Number of symmetry independent centers:    1
  Number of basis sets to read;    2
  Basis set file used for this atomic type with Z =   8 :
     "/home/lab333/dalton/build_2018_atlas/basis/aug-cc-pCVDZ"

  Atomic type no.    4
  --------------------
  Nuclear charge:   1.00000
  Number of symmetry independent centers:    3
  Number of basis sets to read;    2
  Basis set file used for this atomic type with Z =   1 :
     "/home/lab333/dalton/build_2018_atlas/basis/aug-cc-pCVDZ"


                         SYMGRP: Point group information
                         -------------------------------

@    Point group: C2v

@  * The irrep name for each symmetry:    1: A1     2: B1     3: B2     4: A2 

   * The point group was generated by:

      Reflection in the yz-plane
      Reflection in the xz-plane

   * Group multiplication table

        |  E   C2z  Oxz  Oyz
   -----+--------------------
     E  |  E   C2z  Oxz  Oyz
    C2z | C2z   E   Oyz  Oxz
    Oxz | Oxz  Oyz   E   C2z
    Oyz | Oyz  Oxz  C2z   E 

   * Character table

        |  E   C2z  Oxz  Oyz
   -----+--------------------
    A1  |   1    1    1    1
    B1  |   1   -1    1   -1
    B2  |   1   -1   -1    1
    A2  |   1    1   -1   -1

   * Direct product table

        | A1   B1   B2   A2 
   -----+--------------------
    A1  | A1   B1   B2   A2 
    B1  | B1   A1   A2   B2 
    B2  | B2   A2   A1   B1 
    A2  | A2   B2   B1   A1 


                                 Isotopic Masses
                                 ---------------

                           C          12.000000
                           C   _1     12.000000
                           C   _2     12.000000
                           C   _1     12.000000
                           C   _2     12.000000
                           C          12.000000
                           N          14.003074
                           O   _1     15.994915
                           O   _2     15.994915
                           H   _1      1.007825
                           H   _2      1.007825
                           H   _1      1.007825
                           H   _2      1.007825
                           H           1.007825

                       Total mass:   123.032029 amu
                       Natural abundance:  92.716 %

 Center-of-mass coordinates (a.u.):    0.000000    0.000000   -0.110731


  Atoms and basis sets
  --------------------

  Number of atom types :    4
  Total number of atoms:   14

  Basis set used is "aug-cc-pCVDZ" from the basis set library.

  label    atoms   charge   prim   cont     basis
  ----------------------------------------------------------------------
  C           6    6.0000    39    27      [11s6p2d|5s4p2d]                                   
  N           1    7.0000    39    27      [11s6p2d|5s4p2d]                                   
  O           2    8.0000    39    27      [11s6p2d|5s4p2d]                                   
  H           5    1.0000    11     9      [5s2p|3s2p]                                        
  ----------------------------------------------------------------------
  total:     14   64.0000   406   288
  ----------------------------------------------------------------------
  Spherical harmonic basis used.

  Threshold for neglecting AO integrals:  1.00D-12


  Symmetry Coordinates
  --------------------

  Number of coordinates in each symmetry:    14   14    9    5


   Interatomic separations (in Angstrom):
   --------------------------------------

            C           C   _1      C   _2      C   _1      C   _2      C     
            ------      ------      ------      ------      ------      ------
 C     :    0.000000
 C   _1:    1.391719    0.000000
 C   _2:    1.391719    2.438107    0.000000
 C   _1:    2.392065    1.391780    2.799956    0.000000
 C   _2:    2.392065    2.799956    1.391780    2.421019    0.000000
 C     :    2.757573    2.416230    2.416230    1.395542    1.395542    0.000000
 N     :    1.481505    2.474093    2.474093    3.745665    3.745665    4.239078
 O   _1:    2.650913    3.694067    3.358807    4.967622    4.725389    5.385632
 O   _2:    2.650913    3.358807    3.694067    4.725389    4.967622    5.385632
 H   _1:    2.143694    1.081451    3.407316    2.166922    3.881063    3.407904
 H   _2:    2.143694    3.407316    1.081451    3.881063    2.166922    3.407904
 H   _1:    3.376890    2.145360    3.883675    1.083722    3.403140    2.154719
 H   _2:    3.376890    3.883675    2.145360    3.403140    1.083722    2.154719
 H     :    3.841819    3.396703    3.396703    2.151500    2.151500    1.084247

            N           O   _1      O   _2      H   _1      H   _2      H   _1
            ------      ------      ------      ------      ------      ------
 N     :    0.000000
 O   _1:    1.224763    0.000000
 O   _2:    1.224763    0.969827    0.000000
 H   _1:    2.665523    3.775299    3.178044    0.000000
 H   _2:    2.665523    3.178044    3.775299    4.282121    0.000000
 H   _1:    4.616894    5.838777    5.470142    2.498398    4.964773    0.000000
 H   _2:    4.616894    5.470142    5.838777    4.964773    2.498398    4.298566
 H     :    5.323325    6.466212    6.466212    4.305675    4.305675    2.479943

            H   _2      H     
            ------      ------
 H   _2:    0.000000
 H     :    2.479943    0.000000


  Max    interatomic separation is    6.4662 Angstrom (   12.2194 Bohr)
  between atoms   14 and    8, "H     " and "O   _1".

  Min HX interatomic separation is    1.0815 Angstrom (    2.0436 Bohr)

  Min YX interatomic separation is    0.9698 Angstrom (    1.8327 Bohr)

@ WARNING: Number of short HX and YX bond lengths:    0    1
@ WARNING: If not intentional, maybe your coordinates were in Angstrom,
@ WARNING: but "Angstrom" was not specified in .mol file


  Bond distances (Angstrom):
  --------------------------

                  atom 1     atom 2       distance
                  ------     ------       --------
  bond distance:  C   _1     C            1.391719
  bond distance:  C   _2     C            1.391719
  bond distance:  C   _1     C   _1       1.391780
  bond distance:  C   _2     C   _2       1.391780
  bond distance:  C          C   _1       1.395542
  bond distance:  C          C   _2       1.395542
  bond distance:  N          C            1.481505
  bond distance:  O   _1     N            1.224763
  bond distance:  O   _2     N            1.224763
  bond distance:  O   _2     O   _1       0.969827
  bond distance:  H   _1     C   _1       1.081451
  bond distance:  H   _2     C   _2       1.081451
  bond distance:  H   _1     C   _1       1.083722
  bond distance:  H   _2     C   _2       1.083722
  bond distance:  H          C            1.084247


  Bond angles (degrees):
  ----------------------

                  atom 1     atom 2     atom 3         angle
                  ------     ------     ------         -----
  bond angle:     C   _1     C          C   _2       122.311
  bond angle:     C   _1     C          N            118.844
  bond angle:     C   _2     C          N            118.844
  bond angle:     C          C   _1     C   _1       118.493
  bond angle:     C          C   _1     H   _1       119.647
  bond angle:     C   _1     C   _1     H   _1       121.860
  bond angle:     C          C   _2     C   _2       118.493
  bond angle:     C          C   _2     H   _2       119.647
  bond angle:     C   _2     C   _2     H   _2       121.860
  bond angle:     C   _1     C   _1     C            120.192
  bond angle:     C   _1     C   _1     H   _1       119.623
  bond angle:     C          C   _1     H   _1       120.185
  bond angle:     C   _2     C   _2     C            120.192
  bond angle:     C   _2     C   _2     H   _2       119.623
  bond angle:     C          C   _2     H   _2       120.185
  bond angle:     C   _1     C          C   _2       120.319
  bond angle:     C   _1     C          H            119.841
  bond angle:     C   _2     C          H            119.841
  bond angle:     C          N          O   _1       156.676
  bond angle:     C          N          O   _2       156.676
  bond angle:     O   _1     N          O   _2        46.647
  bond angle:     N          O   _1     O   _2        66.676
  bond angle:     N          O   _2     O   _1        66.676




 Principal moments of inertia (u*A**2) and principal axes
 --------------------------------------------------------

   IA      96.907474          0.000000    0.000000    1.000000
   IB     480.690662          1.000000    0.000000    0.000000
   IC     577.598136          0.000000    1.000000    0.000000


 Rotational constants
 --------------------

@    The molecule is planar.

               A                   B                   C

           5215.0674           1051.3601            874.9665 MHz
            0.173956            0.035070            0.029186 cm-1


@  Nuclear repulsion energy :  420.492003028797 Hartree


  Symmetry Orbitals
  -----------------

  Number of orbitals in each symmetry:         115   91   48   34


  Symmetry  A1 ( 1)

    1     C        1s         1
    2     C        1s         2
    3     C        1s         3
    4     C        1s         4
    5     C        1s         5
    6     C        2pz        8
    7     C        2pz       11
    8     C        2pz       14
    9     C        2pz       17
   10     C        3d0       20
   11     C        3d2+      22
   12     C        3d0       25
   13     C        3d2+      27
   14     C        1s        28 +   29
   15     C        1s        30 +   31
   16     C        1s        32 +   33
   17     C        1s        34 +   35
   18     C        1s        36 +   37
   19     C        2px       38 -   39
   20     C        2pz       42 +   43
   21     C        2px       44 -   45
   22     C        2pz       48 +   49
   23     C        2px       50 -   51
   24     C        2pz       54 +   55
   25     C        2px       56 -   57
   26     C        2pz       60 +   61
   27     C        3d0       66 +   67
   28     C        3d1+      68 -   69
   29     C        3d2+      70 +   71
   30     C        3d0       76 +   77
   31     C        3d1+      78 -   79
   32     C        3d2+      80 +   81
   33     C        1s        82 +   83
   34     C        1s        84 +   85
   35     C        1s        86 +   87
   36     C        1s        88 +   89
   37     C        1s        90 +   91
   38     C        2px       92 -   93
   39     C        2pz       96 +   97
   40     C        2px       98 -   99
   41     C        2pz      102 +  103
   42     C        2px      104 -  105
   43     C        2pz      108 +  109
   44     C        2px      110 -  111
   45     C        2pz      114 +  115
   46     C        3d0      120 +  121
   47     C        3d1+     122 -  123
   48     C        3d2+     124 +  125
   49     C        3d0      130 +  131
   50     C        3d1+     132 -  133
   51     C        3d2+     134 +  135
   52     C        1s       136
   53     C        1s       137
   54     C        1s       138
   55     C        1s       139
   56     C        1s       140
   57     C        2pz      143
   58     C        2pz      146
   59     C        2pz      149
   60     C        2pz      152
   61     C        3d0      155
   62     C        3d2+     157
   63     C        3d0      160
   64     C        3d2+     162
   65     N        1s       163
   66     N        1s       164
   67     N        1s       165
   68     N        1s       166
   69     N        1s       167
   70     N        2pz      170
   71     N        2pz      173
   72     N        2pz      176
   73     N        2pz      179
   74     N        3d0      182
   75     N        3d2+     184
   76     N        3d0      187
   77     N        3d2+     189
   78     O        1s       190 +  191
   79     O        1s       192 +  193
   80     O        1s       194 +  195
   81     O        1s       196 +  197
   82     O        1s       198 +  199
   83     O        2px      200 -  201
   84     O        2pz      204 +  205
   85     O        2px      206 -  207
   86     O        2pz      210 +  211
   87     O        2px      212 -  213
   88     O        2pz      216 +  217
   89     O        2px      218 -  219
   90     O        2pz      222 +  223
   91     O        3d0      228 +  229
   92     O        3d1+     230 -  231
   93     O        3d2+     232 +  233
   94     O        3d0      238 +  239
   95     O        3d1+     240 -  241
   96     O        3d2+     242 +  243
   97     H        1s       244 +  245
   98     H        1s       246 +  247
   99     H        1s       248 +  249
  100     H        2px      250 -  251
  101     H        2pz      254 +  255
  102     H        2px      256 -  257
  103     H        2pz      260 +  261
  104     H        1s       262 +  263
  105     H        1s       264 +  265
  106     H        1s       266 +  267
  107     H        2px      268 -  269
  108     H        2pz      272 +  273
  109     H        2px      274 -  275
  110     H        2pz      278 +  279
  111     H        1s       280
  112     H        1s       281
  113     H        1s       282
  114     H        2pz      285
  115     H        2pz      288


  Symmetry  B1 ( 2)

  116     C        2px        6
  117     C        2px        9
  118     C        2px       12
  119     C        2px       15
  120     C        3d1+      21
  121     C        3d1+      26
  122     C        1s        28 -   29
  123     C        1s        30 -   31
  124     C        1s        32 -   33
  125     C        1s        34 -   35
  126     C        1s        36 -   37
  127     C        2px       38 +   39
  128     C        2pz       42 -   43
  129     C        2px       44 +   45
  130     C        2pz       48 -   49
  131     C        2px       50 +   51
  132     C        2pz       54 -   55
  133     C        2px       56 +   57
  134     C        2pz       60 -   61
  135     C        3d0       66 -   67
  136     C        3d1+      68 +   69
  137     C        3d2+      70 -   71
  138     C        3d0       76 -   77
  139     C        3d1+      78 +   79
  140     C        3d2+      80 -   81
  141     C        1s        82 -   83
  142     C        1s        84 -   85
  143     C        1s        86 -   87
  144     C        1s        88 -   89
  145     C        1s        90 -   91
  146     C        2px       92 +   93
  147     C        2pz       96 -   97
  148     C        2px       98 +   99
  149     C        2pz      102 -  103
  150     C        2px      104 +  105
  151     C        2pz      108 -  109
  152     C        2px      110 +  111
  153     C        2pz      114 -  115
  154     C        3d0      120 -  121
  155     C        3d1+     122 +  123
  156     C        3d2+     124 -  125
  157     C        3d0      130 -  131
  158     C        3d1+     132 +  133
  159     C        3d2+     134 -  135
  160     C        2px      141
  161     C        2px      144
  162     C        2px      147
  163     C        2px      150
  164     C        3d1+     156
  165     C        3d1+     161
  166     N        2px      168
  167     N        2px      171
  168     N        2px      174
  169     N        2px      177
  170     N        3d1+     183
  171     N        3d1+     188
  172     O        1s       190 -  191
  173     O        1s       192 -  193
  174     O        1s       194 -  195
  175     O        1s       196 -  197
  176     O        1s       198 -  199
  177     O        2px      200 +  201
  178     O        2pz      204 -  205
  179     O        2px      206 +  207
  180     O        2pz      210 -  211
  181     O        2px      212 +  213
  182     O        2pz      216 -  217
  183     O        2px      218 +  219
  184     O        2pz      222 -  223
  185     O        3d0      228 -  229
  186     O        3d1+     230 +  231
  187     O        3d2+     232 -  233
  188     O        3d0      238 -  239
  189     O        3d1+     240 +  241
  190     O        3d2+     242 -  243
  191     H        1s       244 -  245
  192     H        1s       246 -  247
  193     H        1s       248 -  249
  194     H        2px      250 +  251
  195     H        2pz      254 -  255
  196     H        2px      256 +  257
  197     H        2pz      260 -  261
  198     H        1s       262 -  263
  199     H        1s       264 -  265
  200     H        1s       266 -  267
  201     H        2px      268 +  269
  202     H        2pz      272 -  273
  203     H        2px      274 +  275
  204     H        2pz      278 -  279
  205     H        2px      283
  206     H        2px      286


  Symmetry  B2 ( 3)

  207     C        2py        7
  208     C        2py       10
  209     C        2py       13
  210     C        2py       16
  211     C        3d1-      19
  212     C        3d1-      24
  213     C        2py       40 +   41
  214     C        2py       46 +   47
  215     C        2py       52 +   53
  216     C        2py       58 +   59
  217     C        3d2-      62 -   63
  218     C        3d1-      64 +   65
  219     C        3d2-      72 -   73
  220     C        3d1-      74 +   75
  221     C        2py       94 +   95
  222     C        2py      100 +  101
  223     C        2py      106 +  107
  224     C        2py      112 +  113
  225     C        3d2-     116 -  117
  226     C        3d1-     118 +  119
  227     C        3d2-     126 -  127
  228     C        3d1-     128 +  129
  229     C        2py      142
  230     C        2py      145
  231     C        2py      148
  232     C        2py      151
  233     C        3d1-     154
  234     C        3d1-     159
  235     N        2py      169
  236     N        2py      172
  237     N        2py      175
  238     N        2py      178
  239     N        3d1-     181
  240     N        3d1-     186
  241     O        2py      202 +  203
  242     O        2py      208 +  209
  243     O        2py      214 +  215
  244     O        2py      220 +  221
  245     O        3d2-     224 -  225
  246     O        3d1-     226 +  227
  247     O        3d2-     234 -  235
  248     O        3d1-     236 +  237
  249     H        2py      252 +  253
  250     H        2py      258 +  259
  251     H        2py      270 +  271
  252     H        2py      276 +  277
  253     H        2py      284
  254     H        2py      287


  Symmetry  A2 ( 4)

  255     C        3d2-      18
  256     C        3d2-      23
  257     C        2py       40 -   41
  258     C        2py       46 -   47
  259     C        2py       52 -   53
  260     C        2py       58 -   59
  261     C        3d2-      62 +   63
  262     C        3d1-      64 -   65
  263     C        3d2-      72 +   73
  264     C        3d1-      74 -   75
  265     C        2py       94 -   95
  266     C        2py      100 -  101
  267     C        2py      106 -  107
  268     C        2py      112 -  113
  269     C        3d2-     116 +  117
  270     C        3d1-     118 -  119
  271     C        3d2-     126 +  127
  272     C        3d1-     128 -  129
  273     C        3d2-     153
  274     C        3d2-     158
  275     N        3d2-     180
  276     N        3d2-     185
  277     O        2py      202 -  203
  278     O        2py      208 -  209
  279     O        2py      214 -  215
  280     O        2py      220 -  221
  281     O        3d2-     224 +  225
  282     O        3d1-     226 -  227
  283     O        3d2-     234 +  235
  284     O        3d1-     236 -  237
  285     H        2py      252 -  253
  286     H        2py      258 -  259
  287     H        2py      270 -  271
  288     H        2py      276 -  277

  Symmetries of electric field:  B1 (2)  B2 (3)  A1 (1)

  Symmetries of magnetic field:  B2 (3)  B1 (2)  A2 (4)


                     .---------------------------------------.
                     | Starting in Integral Section (HERMIT) |
                     `---------------------------------------'



 ***************************************************************************************
 ****************** Output from **INTEGRALS input processing (HERMIT) ******************
 ***************************************************************************************


 - Using defaults, no **INTEGRALS input found

 Default print level:        1

 Calculation of one-electron Hamiltonian integrals.

 Center of mass  (bohr):      0.000000000000      0.000000000000     -0.110731485320
 Operator center (bohr):      0.000000000000      0.000000000000      0.000000000000
 Gauge origin    (bohr):      0.000000000000      0.000000000000      0.000000000000
 Dipole origin   (bohr):      0.000000000000      0.000000000000      0.000000000000


     ************************************************************************
     ************************** Output from HERINT **************************
     ************************************************************************



                      Nuclear contribution to dipole moments
                      --------------------------------------

                 au               Debye          C m (/(10**-30)

      z    -15.59998941       -39.65121548      -132.26221814


  Time used in GABGEN     is       0.11 seconds
  Total CPU  time used in HERMIT:   0.41 seconds
  Total wall time used in HERMIT:   0.41 seconds


                        .----------------------------------.
                        | End of Integral Section (HERMIT) |
                        `----------------------------------'



                   .--------------------------------------------.
                   | Starting in Wave Function Section (SIRIUS) |
                   `--------------------------------------------'


 *** Output from Huckel module :

     Using EWMO model:          F
     Using EHT  model:          T
     Number of Huckel orbitals each symmetry:   24   17    6    3

 Huckel EHT eigenvalues for symmetry :  1
          -20.754832     -15.706238     -11.414837     -11.394396     -11.376673
          -11.362577      -2.018117      -1.579288      -1.284365      -1.031262
           -0.838821      -0.750563      -0.638896      -0.579707      -0.546489
           -0.440281      -0.315665      -0.237688      -0.219883      -0.213399
           -0.205725      -0.178497      -0.166816      -0.160385

 Huckel EHT eigenvalues for symmetry :  2
          -20.718690     -11.396449     -11.377840      -1.233683      -1.108675
           -0.880837      -0.561114      -0.533193      -0.476194      -0.416013
           -0.336048      -0.284809      -0.213860      -0.202822      -0.176271
           -0.165474      -0.163329

 Huckel EHT eigenvalues for symmetry :  3
           -0.871265      -0.703742      -0.491399      -0.395584      -0.281647
           -0.236537

 Huckel EHT eigenvalues for symmetry :  4
           -0.461096      -0.452269      -0.288960

 **********************************************************************
 *SIRIUS* a direct, restricted step, second order MCSCF program       *
 **********************************************************************

 
     Date and time (Linux)  : Sun Jan 12 23:48:48 2020
     Host name              : Lab2-333-NPs                            

 Title lines from ".mol" input file:
      nitrobenzene                                                           
      Generated by the Dalton Input File Plugin for Avogadro                 

 Print level on unit LUPRI =   2 is   0
 Print level on unit LUW4  =   2 is   5

@    MC-SCF optimization.

@    Multi-configurational response calculation.
@              Type: complete active space calculation (CAS).

@    This is a combination run starting with
@              a restricted, closed shell Hartree-Fock calculation
@              an MP2 calculation

 Fock matrices are calculated directly without use of integrals on disk.

 Initial molecular orbitals are obtained according to
 ".MOSTART EHT   " input option

     Wave function specification
     ============================
@    Wave function type        --- MC-SCF ---
@    Number of closed shell electrons          54
@    Number of electrons in active shells      10
@    Total charge of the molecule               0

@    Spin multiplicity and 2 M_S                3         2
@    Total number of symmetries                 4 (point group: C2v)
@    Reference state symmetry                   1 (irrep name : A1 )

     Orbital specifications
     ======================
@    Abelian symmetry species          All |    1    2    3    4
@                                          |  A1   B1   B2   A2 
                                       --- |  ---  ---  ---  ---
@    Inactive orbitals                  27 |   15   10    2    0
@    Active orbitals                     7 |    1    1    2    3
@    Secondary orbitals                254 |   99   80   44   31
@    Total number of orbitals          288 |  115   91   48   34
@    Number of basis functions         288 |  115   91   48   34

      ** Automatic occupation of RHF orbitals **

      -- Initial occupation of symmetries is determined from extended Huckel guess.           
      -- Initial occupation of symmetries is :
@    Occupied SCF orbitals              32 |   16   10    4    2

     Optimization information
     ========================
@    Number of determinants                  56
@    Number of orbital rotations           2762
     ------------------------------------------
@    Total number of variables             2818

     Maximum number of macro iterations      25
     Maximum number of micro iterations     600
     Threshold for MCSCF gradient      1.00D-05
     Number of initial trial vectors          1
     Number of initial CI iterations          3
     Number of simultaneous trial vectors     1

@    This calculation converges to the lowest state for the specified symmetry and spin species.

     Maximum number of NEO/NR iterations  24

    INFORMATION: Switched to "new" integral transformation (from 1988 ;-) )
    because more than 255 basis functions.


 ***********************************************
 ***** DIIS acceleration of SCF iterations *****
 ***********************************************

 C1-DIIS algorithm; max error vectors =    8

 Automatic occupation of symmetries with  64 electrons.

 Iter     Total energy    Error norm  Delta(E)    SCF occupation
 -----------------------------------------------------------------------------
   1  Screening settings (-IFTHRS, JTDIIS, DIFDEN, times)   -8    1    T  2.61D+01  2.61D+01
@  1  -431.800593444       6.61D+00  -4.32D+02    16  10   4   2
      Virial theorem: -V/T =      1.995771
@    MULPOP   C       0.51; C   _1  0.09; C   _2  0.09; C   _1  0.26; C   _2  0.26; C       0.19; N      -0.06; O   _1 -0.21; O   _2 -0.21; H   _1 -0.19; 
@             H   _2 -0.19; H   _1 -0.18; H   _2 -0.18; H      -0.18; 
   1  Level shift: doubly occupied orbital energies shifted by -2.00D-01
 -----------------------------------------------------------------------------
   2  Screening settings (-IFTHRS, JTDIIS, DIFDEN, times)   -8    2    T  2.61D+01  2.61D+01
@  2  -433.511630034       1.44D+00  -1.71D+00    16  10   4   2
      Virial theorem: -V/T =      1.989675
@    MULPOP   C       1.72; C   _1  0.02; C   _2  0.02; C   _1  0.43; C   _2  0.43; C       0.36; N       0.16; O   _1 -0.48; O   _2 -0.48; H   _1 -0.46; 
@             H   _2 -0.46; H   _1 -0.41; H   _2 -0.41; H      -0.42; 
   2  Level shift: doubly occupied orbital energies shifted by -5.00D-02
 -----------------------------------------------------------------------------
   3  Screening settings (-IFTHRS, JTDIIS, DIFDEN, times)   -8    3    T  2.60D+01  2.60D+01
@  3  -433.629990829       4.07D-01  -1.18D-01    16  10   4   2
      Virial theorem: -V/T =      1.996096
@    MULPOP   C       2.15; C   _1 -0.08; C   _2 -0.08; C   _1  0.58; C   _2  0.58; C       0.32; N       0.07; O   _1 -0.55; O   _2 -0.55; H   _1 -0.51; 
@             H   _2 -0.51; H   _1 -0.46; H   _2 -0.46; H      -0.47; 
   3  Level shift: doubly occupied orbital energies shifted by -2.50D-02
 -----------------------------------------------------------------------------
   4  Screening settings (-IFTHRS, JTDIIS, DIFDEN, times)   -8    4    T  2.59D+01  2.59D+01
@  4  -433.641966979       1.18D-01  -1.20D-02    16  10   4   2
      Virial theorem: -V/T =      1.994669
@    MULPOP   C       2.17; C   _1 -0.12; C   _2 -0.12; C   _1  0.59; C   _2  0.59; C       0.32; N       0.00; O   _1 -0.54; O   _2 -0.54; H   _1 -0.49; 
@             H   _2 -0.49; H   _1 -0.45; H   _2 -0.45; H      -0.46; 
   4  Level shift: doubly occupied orbital energies shifted by -1.25D-02
 -----------------------------------------------------------------------------
   5  Screening settings (-IFTHRS, JTDIIS, DIFDEN, times)  -10    5    F  2.64D+01  2.64D+01
@  5  -433.642960215       5.06D-02  -9.93D-04    16  10   4   2
      Virial theorem: -V/T =      1.994575
@    MULPOP   C       2.19; C   _1 -0.12; C   _2 -0.12; C   _1  0.59; C   _2  0.59; C       0.30; N       0.00; O   _1 -0.55; O   _2 -0.55; H   _1 -0.49; 
@             H   _2 -0.49; H   _1 -0.44; H   _2 -0.44; H      -0.45; 
 -----------------------------------------------------------------------------
   6  Screening settings (-IFTHRS, JTDIIS, DIFDEN, times)  -10    6    T  2.61D+01  2.61D+01
@  6  -433.643129011       1.12D-02  -1.69D-04    16  10   4   2
      Virial theorem: -V/T =      1.994679
@    MULPOP   C       2.19; C   _1 -0.13; C   _2 -0.13; C   _1  0.59; C   _2  0.59; C       0.30; N      -0.01; O   _1 -0.55; O   _2 -0.55; H   _1 -0.49; 
@             H   _2 -0.49; H   _1 -0.44; H   _2 -0.44; H      -0.45; 
 -----------------------------------------------------------------------------
   7  Screening settings (-IFTHRS, JTDIIS, DIFDEN, times)  -13    7    F  2.66D+01  2.66D+01
@  7  -433.643141367       2.21D-03  -1.24D-05    16  10   4   2
      Virial theorem: -V/T =      1.994658
@    MULPOP   C       2.19; C   _1 -0.13; C   _2 -0.13; C   _1  0.59; C   _2  0.59; C       0.30; N      -0.01; O   _1 -0.55; O   _2 -0.55; H   _1 -0.49; 
@             H   _2 -0.49; H   _1 -0.44; H   _2 -0.44; H      -0.45; 
 -----------------------------------------------------------------------------
   8  Screening settings (-IFTHRS, JTDIIS, DIFDEN, times)  -13    8    T  2.64D+01  2.64D+01
@  8  -433.643142124       9.26D-04  -7.57D-07    16  10   4   2
      Virial theorem: -V/T =      1.994657
@    MULPOP   C       2.19; C   _1 -0.13; C   _2 -0.13; C   _1  0.59; C   _2  0.59; C       0.30; N      -0.01; O   _1 -0.55; O   _2 -0.55; H   _1 -0.49; 
@             H   _2 -0.49; H   _1 -0.44; H   _2 -0.44; H      -0.45; 
 -----------------------------------------------------------------------------
   9  Screening settings (-IFTHRS, JTDIIS, DIFDEN, times)  -13    9    T  2.63D+01  2.63D+01
@  9  -433.643142226       3.02D-04  -1.02D-07    16  10   4   2
      Virial theorem: -V/T =      1.994658
@    MULPOP   C       2.19; C   _1 -0.13; C   _2 -0.13; C   _1  0.59; C   _2  0.59; C       0.30; N      -0.01; O   _1 -0.55; O   _2 -0.55; H   _1 -0.49; 
@             H   _2 -0.49; H   _1 -0.44; H   _2 -0.44; H      -0.45; 
 -----------------------------------------------------------------------------
  10  Screening settings (-IFTHRS, JTDIIS, DIFDEN, times)  -13   10    T  2.62D+01  2.62D+01
@ 10  -433.643142245       8.92D-05  -1.92D-08    16  10   4   2
      Virial theorem: -V/T =      1.994658
@    MULPOP   C       2.19; C   _1 -0.13; C   _2 -0.13; C   _1  0.59; C   _2  0.59; C       0.30; N      -0.01; O   _1 -0.55; O   _2 -0.55; H   _1 -0.49; 
@             H   _2 -0.49; H   _1 -0.44; H   _2 -0.44; H      -0.45; 
 -----------------------------------------------------------------------------
  11  Screening settings (-IFTHRS, JTDIIS, DIFDEN, times)  -13   11    T  2.62D+01  2.62D+01
@ 11  -433.643142248       4.81D-05  -2.55D-09    16  10   4   2
      Virial theorem: -V/T =      1.994658
@    MULPOP   C       2.19; C   _1 -0.13; C   _2 -0.13; C   _1  0.59; C   _2  0.59; C       0.30; N      -0.01; O   _1 -0.55; O   _2 -0.55; H   _1 -0.49; 
@             H   _2 -0.49; H   _1 -0.44; H   _2 -0.44; H      -0.45; 
 -----------------------------------------------------------------------------
  12  Screening settings (-IFTHRS, JTDIIS, DIFDEN, times)  -13   12    T  2.61D+01  2.61D+01
@ 12  -433.643142248       2.42D-05  -5.81D-10    16  10   4   2
      Virial theorem: -V/T =      1.994658
@    MULPOP   C       2.19; C   _1 -0.13; C   _2 -0.13; C   _1  0.59; C   _2  0.59; C       0.30; N      -0.01; O   _1 -0.55; O   _2 -0.55; H   _1 -0.49; 
@             H   _2 -0.49; H   _1 -0.44; H   _2 -0.44; H      -0.45; 
 -----------------------------------------------------------------------------
  13  Screening settings (-IFTHRS, JTDIIS, DIFDEN, times)  -13   13    T  2.61D+01  2.61D+01
@ 13  -433.643142248       7.27D-06  -2.14D-10    16  10   4   2
      Virial theorem: -V/T =      1.994658
@    MULPOP   C       2.19; C   _1 -0.13; C   _2 -0.13; C   _1  0.59; C   _2  0.59; C       0.30; N      -0.01; O   _1 -0.55; O   _2 -0.55; H   _1 -0.49; 
@             H   _2 -0.49; H   _1 -0.44; H   _2 -0.44; H      -0.45; 
 -----------------------------------------------------------------------------
  14  Screening settings (-IFTHRS, JTDIIS, DIFDEN, times)  -13   14    T  2.61D+01  2.61D+01
@ 14  -433.643142248       3.36D-06  -2.67D-11    16  10   4   2
      Virial theorem: -V/T =      1.994658
@    MULPOP   C       2.19; C   _1 -0.13; C   _2 -0.13; C   _1  0.59; C   _2  0.59; C       0.30; N      -0.01; O   _1 -0.55; O   _2 -0.55; H   _1 -0.49; 
@             H   _2 -0.49; H   _1 -0.44; H   _2 -0.44; H      -0.45; 
 -----------------------------------------------------------------------------
  15  Screening settings (-IFTHRS, JTDIIS, DIFDEN, times)  -13   15    T  2.60D+01  2.60D+01
@ 15  -433.643142248       1.18D-06   1.10D-11    16  10   4   2
      Virial theorem: -V/T =      1.994658
@    MULPOP   C       2.19; C   _1 -0.13; C   _2 -0.13; C   _1  0.59; C   _2  0.59; C       0.30; N      -0.01; O   _1 -0.55; O   _2 -0.55; H   _1 -0.49; 
@             H   _2 -0.49; H   _1 -0.44; H   _2 -0.44; H      -0.45; 
 -----------------------------------------------------------------------------
  16  Screening settings (-IFTHRS, JTDIIS, DIFDEN, times)  -13   16    T  2.59D+01  2.59D+01
@ 16  -433.643142248       5.13D-07  -1.51D-11    16  10   4   2

@ *** DIIS converged in  16 iterations !
@     Converged SCF energy, gradient:   -433.643142248465    5.13D-07
    - total time used in SIRFCK :              0.00 seconds

 --- Writing SIRIFC interface file

 CPU and wall time for SCF :     419.141     419.237


 ----- Output from SIRIUS MP2 module -----

 Reference: H.J.Aa.Jensen, P.Jorgensen, H.Agren, and J.Olsen,
            J. Chem. Phys. 88, 3834 (1988); 89, 5354 (1988)

 Checking that the closed shell orbitals are canonical Hartree-Fock orbitals

    Number of electrons  :   64
    Closed shell orbitals:   16   10    4    2

 Generating Fock matrix

 Hartree-Fock electronic energy:        -854.135145277257
 Hartree-Fock total      energy:        -433.643142248460

 Hartree-Fock orbital energies, symmetry 1 ( A1 ),   16 occupied SCF orbitals

       -20.68973167   -15.65618741   -11.35469819   -11.26416655   -11.25857845
       -11.24762539    -2.11213905    -1.24579931    -1.16948544    -1.04857707
        -0.89782213    -0.81849480    -0.76307942    -0.69258319    -0.63138303
        -0.53313858     0.03315177     0.04565562     0.06350321     0.10859999
         0.12371506     0.14123002     0.15387622     0.15747737     0.16980445
         0.18266653     0.20548387     0.24002541     0.26695735     0.28676992
         0.31946378     0.33235129     0.34349186     0.35867170     0.36333765
         0.39183889     0.40916273     0.42302122     0.45876473     0.47249267
         0.51031542     0.56955844     0.57574502     0.60552774     0.62925885
         0.66761140     0.67588561     0.68205725     0.72129473     0.76092609
         0.78847614     0.83350581     0.89647170     0.90289772     0.95965004
         0.98688128     1.01726095     1.06579082     1.06981221     1.08923026
         1.21341994     1.29153285     1.34132602     1.41803667     1.49979882
         1.53992984     1.55648247     1.59547262     1.61315480     1.63529709
         1.69156128     1.73606967     1.76871346     1.79059646     1.87438485
         1.95955488     1.99189189     2.03424139     2.03963114     2.19902306
         2.23510691     2.29540456     2.34449045     2.40650224     2.44104073
         2.52780033     2.56086267     2.69429914     2.75285394     2.84019922
         2.91689076     2.98488323     3.05652157     3.15113239     3.17270391
         3.31647827     3.49535315     3.88533571     4.17260664     4.21646299
        19.81823777    20.32350253    20.46995400    20.64002698    23.37017267
        23.43724563    23.48341631    23.80756459    23.90957949    24.12914345
        27.37551733    31.77985090    35.70541186    39.46888847    40.01816577

 Hartree-Fock orbital energies, symmetry 2 ( B1 ),   10 occupied SCF orbitals

       -20.68673380   -11.26414018   -11.25859185    -1.11939943    -1.03948895
        -0.85354597    -0.65448653    -0.61019450    -0.54595934    -0.51353027
         0.03905924     0.05756137     0.13329433     0.13743446     0.15246121
         0.16159716     0.18106262     0.20684288     0.25861852     0.29727580
         0.30713568     0.31774740     0.35149377     0.36664376     0.38015173
         0.40312478     0.41515840     0.43345757     0.51463472     0.55993352
         0.58018389     0.63200874     0.65706831     0.68111797     0.69913427
         0.75310111     0.77398286     0.82665298     0.84549810     0.86364132
         0.89218798     0.96997328     1.03415344     1.16893967     1.25469786
         1.31555024     1.35874440     1.39277391     1.47375092     1.50760541
         1.55454845     1.60363873     1.65765241     1.68985132     1.72394740
         1.76871944     1.79007321     1.82364006     1.87228377     1.94612795
         2.05555433     2.14094979     2.17542221     2.31826554     2.33411844
         2.38508994     2.44971689     2.54765352     2.70232481     2.74473200
         2.91055365     2.94496506     3.17381541     3.29844172     3.37896584
         3.43311255     4.05134090     4.56388223     4.96880326    20.29688547
        20.48080256    22.87619030    23.33104533    23.39478230    23.96316148
        24.13243172    24.31888890    31.34237300    36.15813719    40.05861943
        42.09253667

 Hartree-Fock orbital energies, symmetry 3 ( B2 ),    4 occupied SCF orbitals

        -0.97544537    -0.54594792    -0.44071581    -0.30890942     0.10366212
         0.12009281     0.13909897     0.18496469     0.19008274     0.22987058
         0.29835353     0.33990677     0.39069560     0.46868335     0.54717175
         0.59990874     0.67309025     0.71609051     0.79519736     0.87761187
         0.91691255     0.93071640     0.95893811     1.04138355     1.07918659
         1.15653307     1.19559108     1.47912959     1.52703193     1.62847479
         1.68284201     1.71715925     1.85092522     1.94472309     2.09710841
         2.13632048     2.18848347     2.31551106     2.56220966     2.68911906
         3.09014030     3.70438807    22.56528445    22.71312177    22.84199847
        23.04104807    30.76974548    39.41836661

 Hartree-Fock orbital energies, symmetry 4 ( A2 ),    2 occupied SCF orbitals

        -0.36066778    -0.35583100     0.09454802     0.13748314     0.19147195
         0.28560623     0.41918083     0.49557922     0.55207657     0.66047312
         0.74524351     0.89025675     0.90994001     0.94812537     1.04091710
         1.08200680     1.23056002     1.33291862     1.44880350     1.64118708
         1.69218101     1.70299780     1.82671364     1.88464222     2.11467531
         2.18883982     2.36150566     2.54659373     2.63188464     3.89253999
         4.45169438    22.70915058    22.87792480    39.53230699

    E(LUMO) :     0.03315177   (in symmetry 1)
  - E(HOMO) :    -0.30890942   (in symmetry 3)
  --------------------------
    gap     :     0.34206118

---> (Re)generating AOTWOINT


     ************************************************************************
     ************************** Output from HERINT **************************
     ************************************************************************


 Threshold for neglecting two-electron integrals:  1.00D-12
 HERMIT - Number of two-electron integrals written:   198196786 ( 22.9% )
 HERMIT - Megabytes written:                           3025.503

  Time used in TWOINT     is      36.30 seconds

 2-el. integral transformation level 5: Total CPU and WALL times (sec)     387.078     388.781

 MP2 move   0.894547 electrons to unoccupied HF orbitals


@   Hartree-Fock total energy   :          -433.6431422485
@   + MP2 contribution          :            -1.6569837753
@   = MP2 second order energy   :          -435.3001260238

 Natural orbital occupation numbers, symmetry 1 (irrep A1 )
 Sum =    31.99395982; RHF =    32.00000000; Difference =    -0.00604018

         1.99928195     1.99905776     1.99876115     1.99875789     1.99875214
         1.99874866     1.99014836     1.98421861     1.97982654     1.97450014
         1.97150072     1.96958161     1.96632780     1.96289174     1.95605766
         1.94931154     0.03832680     0.02561158     0.02424423     0.02193371
         0.01897329     0.01719326     0.01643404     0.01354562     0.01299226
         0.01224774     0.00997217     0.00888810     0.00837711     0.00768875
         0.00667366     0.00624980     0.00470245     0.00424351     0.00346456
         0.00299283     0.00288446     0.00257658     0.00237046     0.00206793
         0.00169443     0.00155464     0.00140899     0.00127837     0.00122571
         0.00112321     0.00106375     0.00095130     0.00073490     0.00065594
         0.00061765     0.00050988     0.00048600     0.00044554     0.00043055
         0.00041627     0.00039881     0.00037482     0.00035911     0.00035393
         0.00034118     0.00032477     0.00031394     0.00030038     0.00028086
         0.00026107     0.00023328     0.00022422     0.00022084     0.00019747
         0.00019397     0.00018350     0.00017710     0.00017245     0.00016751
         0.00016040     0.00015721     0.00014352     0.00013931     0.00013526
         0.00013244     0.00012106     0.00011850     0.00010540     0.00010118
         0.00009235     0.00007801     0.00006524     0.00005848     0.00005148
         0.00004470     0.00003641     0.00003344     0.00002522     0.00001712
         0.00001480     0.00001415     0.00001241     0.00001064     0.00000950
         0.00000782     0.00000742     0.00000645     0.00000352     0.00000223
         0.00000131     0.00000088     0.00000070     0.00000044     0.00000025
         0.00000015     0.00000007    -0.00000008    -0.00000074    -0.00000431

 Natural orbital occupation numbers, symmetry 2 (irrep B1 )
 Sum =    19.99231703; RHF =    20.00000000; Difference =    -0.00768297

         1.99927292     1.99875752     1.99874989     1.98169251     1.98000950
         1.97258859     1.96088723     1.95558275     1.95429692     1.94424666
         0.04611970     0.02507060     0.02371315     0.01801027     0.01696942
         0.01639908     0.01573256     0.01200006     0.00973721     0.00912555
         0.00825454     0.00562963     0.00532621     0.00356843     0.00319863
         0.00305540     0.00249959     0.00216843     0.00197685     0.00164262
         0.00161293     0.00141339     0.00133175     0.00117602     0.00102406
         0.00099653     0.00068274     0.00064275     0.00054458     0.00045814
         0.00043198     0.00042332     0.00036944     0.00033835     0.00032959
         0.00030258     0.00029436     0.00026379     0.00025376     0.00022318
         0.00020877     0.00019914     0.00018811     0.00018313     0.00018207
         0.00017206     0.00016780     0.00016338     0.00015072     0.00014177
         0.00013601     0.00012844     0.00012313     0.00011796     0.00010253
         0.00010016     0.00009326     0.00007991     0.00005313     0.00004594
         0.00003181     0.00003109     0.00002368     0.00001794     0.00001528
         0.00001365     0.00001234     0.00001079     0.00000952     0.00000897
         0.00000442     0.00000285     0.00000135     0.00000087     0.00000063
         0.00000036     0.00000027     0.00000011    -0.00000005    -0.00000072
        -0.00000120

 Natural orbital occupation numbers, symmetry 3 (irrep B2 )
 Sum =     7.99163570; RHF =     8.00000000; Difference =    -0.00836430

         1.97910656     1.95889192     1.94526708     1.90742420     0.07120350
         0.03161425     0.01506272     0.01342415     0.01071729     0.00967731
         0.00892417     0.00744796     0.00711174     0.00532945     0.00403486
         0.00333930     0.00240942     0.00162018     0.00146545     0.00092039
         0.00089416     0.00070435     0.00056417     0.00052989     0.00047960
         0.00045459     0.00039244     0.00034551     0.00030120     0.00024567
         0.00021401     0.00020191     0.00019222     0.00018234     0.00017271
         0.00013753     0.00012781     0.00011751     0.00009877     0.00009219
         0.00007503     0.00005583     0.00002911     0.00002414     0.00001211
         0.00000709     0.00000179    -0.00000991

 Natural orbital occupation numbers, symmetry 4 (irrep A2 )
 Sum =     4.02208746; RHF =     4.00000000; Difference =     0.02208746

         1.96883142     1.91259483     0.06946246     0.01782901     0.01098863
         0.00967691     0.00733603     0.00576134     0.00435550     0.00373051
         0.00272466     0.00150136     0.00143881     0.00096167     0.00079393
         0.00074199     0.00063045     0.00054098     0.00041814     0.00038442
         0.00031583     0.00023772     0.00019737     0.00018380     0.00014747
         0.00013281     0.00012400     0.00009909     0.00007462     0.00005020
         0.00002211     0.00001955     0.00001059    -0.00023074

 Time used for MP2 natural orbitals :     416.891 CPU seconds,     418.601 wall seconds.

 CPU and wall time for MP2 :     416.891     418.601


        SIRIUS MCSCF optimization (SIROPT)
 ================================================


 Fock matrix screening setting for SIRCNO: IFTHRS =    9


 ----- Output from SIRIUS CI module (CICTL) -----




 2-el. integral transformation level 0: Total CPU and WALL times (sec)      93.891      93.942


 --- SIRCI.CIST1: plus combination of all degenerate
                 configurations is used as start vectors.


 (CIST1) 8 lowest diagonal elements:

 Element no. Config.no.    Active energy      Total energy

         1 :         47    -15.0431656774   -433.4175971607
         2 :         48    -14.8192274091   -433.1936588925
         3 :         56    -14.6050475080   -432.9794789914
         4 :         51    -14.5096226048   -432.8840540882
         5 :         49    -14.2487534621   -432.6231849454
         6 :         39    -14.2431433331   -432.6175748164
         7 :         31    -14.2410147665   -432.6154462498
         8 :          9    -14.2388375173   -432.6132690006


 Convergence threshold for CI optimization :     0.00000500



 *** Reached maximum number of CI iterations:    3
              1 CI roots are not converged.


@ Final CI energies and residuals in symmetry 1 (irrep A1 )
@    1     -433.421986235605686       1.63D-04

   --- OUTPUT FROM SIRCNO     Keyword = FD+NO 


 Occupations of CAS natural orbitals:

 Symmetry  1 ( irrep A1  in C2v )

   1.998159521

 Symmetry  2 ( irrep B1  in C2v )

   0.002390043

 Symmetry  3 ( irrep B2  in C2v )

   1.994331493   1.994661532

 Symmetry  4 ( irrep A2  in C2v )

   1.999454070   1.005664809   1.005338530


 --- MACRO ITERATION  1 ---
 --------------------------

 2-el. integral transformation level 3: Total CPU and WALL times (sec)      95.438      95.501

 Fock matrix screening setting for this macro iteration: 10^( -9)

 Total MCSCF energy       :          -433.421986234774749  (MACRO    1)

 - Nuclear repulsion      :           420.492003028796546
 - Inactive energy        :          -838.866434512030082
 - Active energy          :           -15.047554751541231

 Norm of total gradient   :             0.590212977806
 -    of CI gradient      :             0.000326365903
 -    of orbital gradient :             0.590212887572
      Virial theorem: -V/T =      1.982314
@    MULPOP   C       2.07; C   _1  0.04; C   _2  0.04; C   _1  0.51; C   _2  0.51; C       0.36; N       0.77; O   _1 -0.90; O   _2 -0.90; H   _1 -0.54; 
@             H   _2 -0.54; H   _1 -0.47; H   _2 -0.47; H      -0.49; 

 Residual norm when dim(red L) =   6
 NEO root     CSF        orbital          total
    1     0.07685052     0.02207234     0.07995743 converged

 (NEONEX) NEO vector is converged.

   --- OUTPUT FROM SIRCNO     Keyword = FD+NO 


 Occupations of CAS natural orbitals:

 Symmetry  1 ( irrep A1  in C2v )

   1.998159521

 Symmetry  2 ( irrep B1  in C2v )

   0.002390043

 Symmetry  3 ( irrep B2  in C2v )

   1.994331493   1.994661532

 Symmetry  4 ( irrep A2  in C2v )

   1.999454070   1.005664809   1.005338530


 --- MACRO ITERATION  2 ---
 --------------------------

 2-el. integral transformation level 3: Total CPU and WALL times (sec)      95.953      95.993

 Fock matrix screening setting for this macro iteration: 10^( -9)

 Total MCSCF energy       :          -433.479161696493520  (MACRO    2)

 - Nuclear repulsion      :           420.492003028796546
 - Inactive energy        :          -838.622633516397514
 - Active energy          :           -15.348531208892549

 Norm of total gradient   :             0.071782918346
 -    of CI gradient      :             0.047427552665
 -    of orbital gradient :             0.053883342643
      Virial theorem: -V/T =      1.986922
@    MULPOP   C       2.32; C   _1 -0.28; C   _2 -0.28; C   _1  0.58; C   _2  0.58; C       0.42; N       0.83; O   _1 -0.89; O   _2 -0.89; H   _1 -0.52; 
@             H   _2 -0.52; H   _1 -0.45; H   _2 -0.45; H      -0.44; 

 (SIRNEO) iteration (  2,  5)
 Micro iteration termination criterion met, EVAL(ISTATE+1) = -9.35D-04

   --- OUTPUT FROM SIRCNO     Keyword = FD+NO 


 Occupations of CAS natural orbitals:

 Symmetry  1 ( irrep A1  in C2v )

   1.994589743

 Symmetry  2 ( irrep B1  in C2v )

   0.005811432

 Symmetry  3 ( irrep B2  in C2v )

   1.989590655   1.990292385

 Symmetry  4 ( irrep A2  in C2v )

   1.999607467   1.010400682   1.009707636


 --- MACRO ITERATION  3 ---
 --------------------------

 2-el. integral transformation level 3: Total CPU and WALL times (sec)      97.172      97.239

 Fock matrix screening setting for this macro iteration: 10^( -9)

 Total MCSCF energy       :          -433.480426874518002  (MACRO    3)

 - Nuclear repulsion      :           420.492003028796546
 - Inactive energy        :          -838.453368939933171
 - Active energy          :           -15.519060963381403

 Norm of total gradient   :             0.065547145108
 -    of CI gradient      :             0.057268190263
 -    of orbital gradient :             0.031887028960
      Virial theorem: -V/T =      1.990199
@    MULPOP   C       2.38; C   _1 -0.23; C   _2 -0.23; C   _1  0.50; C   _2  0.50; C       0.40; N       0.42; O   _1 -0.70; O   _2 -0.70; H   _1 -0.50; 
@             H   _2 -0.50; H   _1 -0.45; H   _2 -0.45; H      -0.43; 

 Residual norm when dim(red L) =   8
 NEO root     CSF        orbital          total
    1     0.01059681     0.00587574     0.01211679 converged

 (NEONEX) NEO vector is converged.

   --- OUTPUT FROM SIRCNO     Keyword = FD+NO 


 Occupations of CAS natural orbitals:

 Symmetry  1 ( irrep A1  in C2v )

   1.995021906

 Symmetry  2 ( irrep B1  in C2v )

   0.004985427

 Symmetry  3 ( irrep B2  in C2v )

   1.993896163   1.994259181

 Symmetry  4 ( irrep A2  in C2v )

   1.999994157   1.006102450   1.005740716


 --- MACRO ITERATION  4 ---
 --------------------------

 2-el. integral transformation level 3: Total CPU and WALL times (sec)      95.562      95.622

 Fock matrix screening setting for this macro iteration: 10^( -9)

 Total MCSCF energy       :          -433.480709413662737  (MACRO    4)

 - Nuclear repulsion      :           420.492003028796546
 - Inactive energy        :          -838.284148976643337
 - Active energy          :           -15.688563465815934

 Norm of total gradient   :             0.061328279210
 -    of CI gradient      :             0.060338036192
 -    of orbital gradient :             0.010976302630
      Virial theorem: -V/T =      1.990955
@    MULPOP   C       2.18; C   _1 -0.27; C   _2 -0.27; C   _1  0.58; C   _2  0.58; C       0.43; N       0.17; O   _1 -0.52; O   _2 -0.52; H   _1 -0.51; 
@             H   _2 -0.51; H   _1 -0.45; H   _2 -0.45; H      -0.44; 

 (SIRSTP) Energy difference;
 actual, predicted and ratio:  -0.000282539144735  -0.001580857196059    0.178725

 (SIRSTP) step is too large -- backstep

   --- OUTPUT FROM SIRCNO     Keyword = FD+NO 


 Occupations of CAS natural orbitals:

 Symmetry  1 ( irrep A1  in C2v )

   1.995217687

 Symmetry  2 ( irrep B1  in C2v )

   0.004785637

 Symmetry  3 ( irrep B2  in C2v )

   1.993538663   1.993924868

 Symmetry  4 ( irrep A2  in C2v )

   1.999998711   1.006459377   1.006075057


 Optimization control: Step was too large, we backstep


 --- MACRO ITERATION  4 BACKSTEP NO.  1 ---

 2-el. integral transformation level 3: Total CPU and WALL times (sec)      95.984      96.005

 Fock matrix screening setting for this macro iteration: 10^( -9)

 Total MCSCF energy       :          -433.481465154382590  (MACRO    4)

 - Nuclear repulsion      :           420.492003028796546
 - Inactive energy        :          -838.345928983694193
 - Active energy          :           -15.627539199484950

 Norm of total gradient   :             0.028674733600
 -    of CI gradient      :             0.028286760514
 -    of orbital gradient :             0.004701013369
      Virial theorem: -V/T =      1.990984
@    MULPOP   C       2.23; C   _1 -0.27; C   _2 -0.27; C   _1  0.56; C   _2  0.56; C       0.43; N       0.26; O   _1 -0.57; O   _2 -0.57; H   _1 -0.51; 
@             H   _2 -0.51; H   _1 -0.45; H   _2 -0.45; H      -0.44; 

 Residual norm when dim(red L) =  13
 NEO root     CSF        orbital          total
    1     0.00010505     0.00003891     0.00011202 converged

 (NEONEX) NEO vector is converged.

   --- OUTPUT FROM SIRCNO     Keyword = FD+NO 


 Occupations of CAS natural orbitals:

 Symmetry  1 ( irrep A1  in C2v )

   1.995853326

 Symmetry  2 ( irrep B1  in C2v )

   0.004166959

 Symmetry  3 ( irrep B2  in C2v )

   1.992968747   1.993345777

 Symmetry  4 ( irrep A2  in C2v )

   1.999981797   1.007029198   1.006654196


 --- MACRO ITERATION  5 ---
 --------------------------

 2-el. integral transformation level 3: Total CPU and WALL times (sec)      95.500      95.547

 Fock matrix screening setting for this macro iteration: 10^( -9)

 Total MCSCF energy       :          -433.481639603211931  (MACRO    5)

 - Nuclear repulsion      :           420.492003028796546
 - Inactive energy        :          -838.388860697148402
 - Active energy          :           -15.584781934860075

 Norm of total gradient   :             0.002733724582
 -    of CI gradient      :             0.002712688453
 -    of orbital gradient :             0.000338484047
      Virial theorem: -V/T =      1.990905
@    MULPOP   C       2.26; C   _1 -0.28; C   _2 -0.28; C   _1  0.56; C   _2  0.56; C       0.43; N       0.32; O   _1 -0.59; O   _2 -0.59; H   _1 -0.51; 
@             H   _2 -0.51; H   _1 -0.45; H   _2 -0.45; H      -0.44; 

 Residual norm when dim(red L) =  12
 NEO root     CSF        orbital          total
    1     0.00003408     0.00001306     0.00003650 converged

 (NEONEX) NEO vector is converged.

   --- OUTPUT FROM SIRCNO     Keyword = FD+NO 


 Occupations of CAS natural orbitals:

 Symmetry  1 ( irrep A1  in C2v )

   1.995899987

 Symmetry  2 ( irrep B1  in C2v )

   0.004123681

 Symmetry  3 ( irrep B2  in C2v )

   1.992963773   1.993346858

 Symmetry  4 ( irrep A2  in C2v )

   1.999978469   1.007034117   1.006653115


 --- MACRO ITERATION  6 ---
 --------------------------

 2-el. integral transformation level 3: Total CPU and WALL times (sec)      96.203      96.210

 Fock matrix screening setting for this macro iteration: 10^( -9)

 Total MCSCF energy       :          -433.481642658197700  (MACRO    6)

 - Nuclear repulsion      :           420.492003028796546
 - Inactive energy        :          -838.398565700427639
 - Active energy          :           -15.575079986566601

 Norm of total gradient   :             0.000085716397
 -    of CI gradient      :             0.000083575093
 -    of orbital gradient :             0.000019039550
      Virial theorem: -V/T =      1.990877
@    MULPOP   C       2.27; C   _1 -0.29; C   _2 -0.29; C   _1  0.56; C   _2  0.56; C       0.43; N       0.33; O   _1 -0.60; O   _2 -0.60; H   _1 -0.51; 
@             H   _2 -0.51; H   _1 -0.45; H   _2 -0.45; H      -0.44; 

 Residual norm when dim(red L) =   9
 NEO root     CSF        orbital          total
    1     0.00000421     0.00000779     0.00000886 converged

 (NEONEX) NEO vector is converged.

   --- OUTPUT FROM SIRCNO     Keyword = FD+NO 


 Occupations of CAS natural orbitals:

 Symmetry  1 ( irrep A1  in C2v )

   1.995901363

 Symmetry  2 ( irrep B1  in C2v )

   0.004122404

 Symmetry  3 ( irrep B2  in C2v )

   1.992966525   1.993349815

 Symmetry  4 ( irrep A2  in C2v )

   1.999978369   1.007031365   1.006650158


 --- MACRO ITERATION  7 ---
 --------------------------

 2-el. integral transformation level 3: Total CPU and WALL times (sec)      95.547      95.600

 Fock matrix screening setting for this macro iteration: 10^( -9)

 Total MCSCF energy       :          -433.481642661463809  (MACRO    7)

 - Nuclear repulsion      :           420.492003028796546
 - Inactive energy        :          -838.398899170447407
 - Active energy          :           -15.574746519812942

 Norm of total gradient   :             0.000008876110
 -    of CI gradient      :             0.000004253554
 -    of orbital gradient :             0.000007790546
      Virial theorem: -V/T =      1.990876
@    MULPOP   C       2.27; C   _1 -0.29; C   _2 -0.29; C   _1  0.56; C   _2  0.56; C       0.43; N       0.33; O   _1 -0.60; O   _2 -0.60; H   _1 -0.51; 
@             H   _2 -0.51; H   _1 -0.45; H   _2 -0.45; H      -0.44; 

 (SIRSTP) Energy difference;
 actual, predicted and ratio:  -0.000000003266109  -0.000000003303065    0.988812
 Close to convergence, ratio set to one.

 *** Optimization control: MCSCF converged ***
     Number of macro iterations used            7
     Number of micro iterations used           44
     Total number of CPU seconds used      2598.20

 CPU and wall time for MCSCF :    2598.203    2599.264


                     .----------------------------------------.
                     | --- SIRIUS OPTIMIZATION STATISTICS --- |
                     `----------------------------------------'


 
     Date and time (Linux)  : Mon Jan 13 00:46:05 2020
     Host name              : Lab2-333-NPs                            


  ITER ITMIC     EMCSCF           GRDNRM        RATIO      STPLNG
 ---------------------------------------------------------------------
    1    5   -433.421986234775   0.5902129778  0.000000   0.5680791558
    2    5   -433.479161696494   0.0717829183  0.913387   0.7412430477
    3    6   -433.480426874518   0.0655471451  0.491837   0.5908747115
    4    0   -433.480709413663   0.0613282792  0.178725   0.0000000000
    4   11   -433.481465154383   0.0286747336  0.702675   0.0972581788
    5   10   -433.481639603212   0.0027337246  1.071154   0.0186865018
    6    7   -433.481642658198   0.0000857164  1.019392   0.0005926772
    7    0   -433.481642661464   0.0000088761  1.000000   0.0000000000


  ITER  INDGCM  GCIMAX      GCINRM     INDGOM  GOBMAX      GOBNRM      GRDNRM
 ------------------------------------------------------------------------------
    1     37   -0.000177    0.000326   2740    0.136960    0.590213    0.590213
    2     37    0.045215    0.047428   2733    0.017038    0.053883    0.071783
    3     21   -0.033841    0.057268   1608    0.009388    0.031887    0.065547
    4     37   -0.054713    0.060338   1608   -0.004250    0.010976    0.061328
    4     37   -0.025469    0.028287     12   -0.000897    0.004701    0.028675
    5     37   -0.002579    0.002713      8    0.000111    0.000338    0.002734
    6     37   -0.000074    0.000084   1608   -0.000007    0.000019    0.000086
    7     37   -0.000002    0.000004   2680   -0.000001    0.000008    0.000009


  ITER ITMIC NCLIN NOLIN   TIMMAC    TIMITR    TIMMIC    TIMLIN    TIMMIC/ITMIC
 ------------------------------------------------------------------------------

    1     5     0     5    297.84     95.44    173.80    145.25     34.76
    2     5     1     5    299.97     95.95    175.45    146.88     35.09
    3     6     2     5    329.42     97.17    203.66    175.09     33.94
    4     0     0     0    152.70     95.56      0.00      0.00
    4    11     5     7    463.44     95.98    338.84    310.31     30.80
    5    10     5     6    433.89     95.50    309.86    281.41     30.99
    6     7     5     3    347.97     96.20    223.11    194.61     31.87
    7     0     0     0    124.09     95.55      0.00      0.00


 ITER         EMY                 EACTIV              EMCSCF

    1   -838.866434512030    -15.047554751541   -433.421986234775
    2   -838.622633516398    -15.348531208893   -433.479161696494
    3   -838.453368939933    -15.519060963381   -433.480426874518
    4   -838.284148976643    -15.688563465816   -433.480709413663
    4   -838.345928983694    -15.627539199485   -433.481465154383
    5   -838.388860697148    -15.584781934860   -433.481639603212
    6   -838.398565700428    -15.575079986567   -433.481642658198
    7   -838.398899170447    -15.574746519813   -433.481642661464


 ITER         DEPRED              DEACT               RATIO

    1      0.000000000000      0.000000000000      0.000000000000
    2     -0.062597170404     -0.057175461719      0.913387320068
    3     -0.002572350387     -0.001265178024      0.491837360486
    4     -0.001580857196     -0.000282539145      0.178725279829
    4     -0.001477610573     -0.001038279865      0.702674901976
    5     -0.000162860637     -0.000174448829      1.071154037761
    6     -0.000002996870     -0.000003054986      1.019392230433
    7     -0.000000003303     -0.000000003266      1.000000000000


 ITER    BETA           GAMMA             STPLNG              RTRUST

    1      0.20000000  1.00000000      0.568079155800      0.700000000000
    2      0.93034243  1.00000000      0.741243047653      0.700000000000
    3      0.20000000  1.00000000      0.590874711490      0.700000000000
    4      0.00000000  0.00000000      0.000000000000      0.395886056698
[...]

 GP * SOLUTION vector at frequency     0.00000 a.u.
 after   10 linear transformations is      1.54500987D+04
 INERTIA (POS,ZER,NEG) of reduced matrix is   18    0    2
 Determinant of reduced matrix is  3.72 * 10 **-16.0

       No.  Residual tot.,    conf., and orb.    Bnorm      Frequency 
      ----------------------------------------------------------------
         1    1.05523D+00  9.63D-01  4.32D-01  3.17D+02    0.00000D+00

 ** RSPCTL MICROITERATION NUMBER   10

 *** INFO, negative eigenvalues in reduced matrix. Symmetry  4,  triplet       F Dimension of reduced matrix =    22

 GP * SOLUTION vector at frequency     0.00000 a.u.
 after   11 linear transformations is      1.54511546D+04
 INERTIA (POS,ZER,NEG) of reduced matrix is   20    0    2
 Determinant of reduced matrix is  1.90 * 10 **-16.0

       No.  Residual tot.,    conf., and orb.    Bnorm      Frequency 
      ----------------------------------------------------------------
         1    1.22836D+00  3.15D-01  1.19D+00  3.17D+02    0.00000D+00

 ** RSPCTL MICROITERATION NUMBER   11

 *** INFO, negative eigenvalues in reduced matrix. Symmetry  4,  triplet       F Dimension of reduced matrix =    24

 GP * SOLUTION vector at frequency     0.00000 a.u.
 after   12 linear transformations is      1.54450808D+04
 INERTIA (POS,ZER,NEG) of reduced matrix is   21    0    3
 Determinant of reduced matrix is -4.53 * 10 **-20.0

       No.  Residual tot.,    conf., and orb.    Bnorm      Frequency 
      ----------------------------------------------------------------
         1    2.90389D+00  1.34D+00  2.58D+00  3.22D+02    0.00000D+00

 ** RSPCTL MICROITERATION NUMBER   12

 *** INFO, negative eigenvalues in reduced matrix. Symmetry  4,  triplet       F Dimension of reduced matrix =    26

 GP * SOLUTION vector at frequency     0.00000 a.u.
 after   13 linear transformations is      1.54480838D+04
 INERTIA (POS,ZER,NEG) of reduced matrix is   22    0    4
 Determinant of reduced matrix is  4.52 * 10 **-22.0

       No.  Residual tot.,    conf., and orb.    Bnorm      Frequency 
      ----------------------------------------------------------------
         1    1.05988D+00  7.47D-01  7.52D-01  3.18D+02    0.00000D+00

 ** RSPCTL MICROITERATION NUMBER   13

 *** INFO, negative eigenvalues in reduced matrix. Symmetry  4,  triplet       F Dimension of reduced matrix =    28

 GP * SOLUTION vector at frequency     0.00000 a.u.
 after   14 linear transformations is      1.54485066D+04
 INERTIA (POS,ZER,NEG) of reduced matrix is   24    0    4
 Determinant of reduced matrix is  9.42 * 10 **-24.0

       No.  Residual tot.,    conf., and orb.    Bnorm      Frequency 
      ----------------------------------------------------------------
         1    7.15709D-01  6.39D-01  3.21D-01  3.18D+02    0.00000D+00

 ** RSPCTL MICROITERATION NUMBER   14

 *** INFO, negative eigenvalues in reduced matrix. Symmetry  4,  triplet       F Dimension of reduced matrix =    30

 GP * SOLUTION vector at frequency     0.00000 a.u.
 after   15 linear transformations is      1.54487994D+04
 INERTIA (POS,ZER,NEG) of reduced matrix is   26    0    4
 Determinant of reduced matrix is  1.10 * 10 **-23.0

       No.  Residual tot.,    conf., and orb.    Bnorm      Frequency 
      ----------------------------------------------------------------
         1    6.84872D-01  2.78D-01  6.26D-01  3.18D+02    0.00000D+00

 ** RSPCTL MICROITERATION NUMBER   15

 *** INFO, negative eigenvalues in reduced matrix. Symmetry  4,  triplet       F Dimension of reduced matrix =    32

 GP * SOLUTION vector at frequency     0.00000 a.u.
 after   16 linear transformations is      1.54489467D+04
 INERTIA (POS,ZER,NEG) of reduced matrix is   28    0    4
 Determinant of reduced matrix is  2.19 * 10 **-24.0

       No.  Residual tot.,    conf., and orb.    Bnorm      Frequency 
      ----------------------------------------------------------------
         1    3.34729D-01  2.91D-01  1.66D-01  3.18D+02    0.00000D+00

 ** RSPCTL MICROITERATION NUMBER   16

 *** INFO, negative eigenvalues in reduced matrix. Symmetry  4,  triplet       F Dimension of reduced matrix =    34

 GP * SOLUTION vector at frequency     0.00000 a.u.
 after   17 linear transformations is      1.54490070D+04
 INERTIA (POS,ZER,NEG) of reduced matrix is   30    0    4
 Determinant of reduced matrix is  3.08 * 10 **-24.0

       No.  Residual tot.,    conf., and orb.    Bnorm      Frequency 
      ----------------------------------------------------------------
         1    2.43044D-01  6.21D-02  2.35D-01  3.18D+02    0.00000D+00

 *** THE REQUESTED    1 SOLUTION VECTORS CONVERGED

 Convergence of RSP solution vectors, threshold = 1.00D-03
 ---------------------------------------------------------------
 (dimension of paired reduced space:   34)
 RSP solution vector no.    1; norm of residual   7.65D-04

 *** RSPCTL MICROITERATIONS CONVERGED
    XDIPLEN     YDIPLEN      freq1     freq2                Norm
 ---------------------------------------------------------------
                          0.058400 -0.058400        317.71357283


 Perturbation symmetry.     KSYMOP:       1
 Perturbation spin symmetry.TRPLET:       F
 Orbital variables.         KZWOPT:    2762
 Configuration variables.   KZCONF:      56
 Total number of variables. KZVAR :    2818


 CRLRV2 -- linear response calc for sym:  1
 CRLRV2 -- operator label1: YDIPLEN 
 CRLRV2 -- operator label2: YDIPLEN 
 CRLRV2 -- freqr1 :   5.840000D-02
 CRLRV2 -- freqr2 :   5.840000D-02



 ---  SOLVING SETS OF LINEAR EQUATIONS FOR LINEAR RESPONSE PROPERTIES ---

 Operator symmetry = 1  ( A1 ); triplet =   F


 ** RSPCTL MICROITERATION NUMBER    1

       No.  Residual tot.,    conf., and orb.    Bnorm      Frequency 
      ----------------------------------------------------------------
         1    4.09980D+01  1.39D+00  4.10D+01  2.90D+02    1.16800D-01

 ** RSPCTL MICROITERATION NUMBER    2

       No.  Residual tot.,    conf., and orb.    Bnorm      Frequency 
      ----------------------------------------------------------------
         1    2.74813D+01  1.94D+00  2.74D+01  3.74D+02    1.16800D-01

 ** RSPCTL MICROITERATION NUMBER    3

       No.  Residual tot.,    conf., and orb.    Bnorm      Frequency 
      ----------------------------------------------------------------
         1    1.28451D+01  2.11D+00  1.27D+01  3.92D+02    1.16800D-01

 ** RSPCTL MICROITERATION NUMBER    4

       No.  Residual tot.,    conf., and orb.    Bnorm      Frequency 
      ----------------------------------------------------------------
         1    6.25898D+00  2.08D+00  5.90D+00  3.99D+02    1.16800D-01

 ** RSPCTL MICROITERATION NUMBER    5

       No.  Residual tot.,    conf., and orb.    Bnorm      Frequency 
      ----------------------------------------------------------------
         1    6.08517D+00  2.05D+00  5.73D+00  4.02D+02    1.16800D-01

 ** RSPCTL MICROITERATION NUMBER    6

       No.  Residual tot.,    conf., and orb.    Bnorm      Frequency 
      ----------------------------------------------------------------
         1    3.59372D+00  2.01D+00  2.98D+00  4.05D+02    1.16800D-01

 ** RSPCTL MICROITERATION NUMBER    7

       No.  Residual tot.,    conf., and orb.    Bnorm      Frequency 
      ----------------------------------------------------------------
         1    2.32668D+00  2.00D+00  1.19D+00  4.05D+02    1.16800D-01

 ** RSPCTL MICROITERATION NUMBER    8

       No.  Residual tot.,    conf., and orb.    Bnorm      Frequency 
      ----------------------------------------------------------------
         1    1.77959D+00  1.32D+00  1.20D+00  4.05D+02    1.16800D-01

 ** RSPCTL MICROITERATION NUMBER    9

       No.  Residual tot.,    conf., and orb.    Bnorm      Frequency 
      ----------------------------------------------------------------
         1    1.22210D+00  4.68D-04  1.22D+00  4.05D+02    1.16800D-01

 ** RSPCTL MICROITERATION NUMBER   10

       No.  Residual tot.,    conf., and orb.    Bnorm      Frequency 
      ----------------------------------------------------------------
         1    5.40148D-01  1.70D-01  5.13D-01  4.06D+02    1.16800D-01

 ** RSPCTL MICROITERATION NUMBER   11

       No.  Residual tot.,    conf., and orb.    Bnorm      Frequency 
      ----------------------------------------------------------------
         1    3.06824D-01  1.88D-01  2.42D-01  4.06D+02    1.16800D-01

 *** THE REQUESTED    1 SOLUTION VECTORS CONVERGED

 Convergence of RSP solution vectors, threshold = 1.00D-03
 ---------------------------------------------------------------
 (dimension of paired reduced space:   24)
 RSP solution vector no.    1; norm of residual   7.56D-04

 *** RSPCTL MICROITERATIONS CONVERGED
    YDIPLEN     YDIPLEN      freq1     freq2                Norm
 ---------------------------------------------------------------
                          0.058400  0.058400        405.76342070
  Time used in CRVEC2     is       2 hours 22 minutes 53 seconds


 ----- CALCULATING CONTRIBUTIONS TO SECOND HYPERPOLARIZABILITY -----


   Contribution                Term         Accumulated
 ------------------------------------------------------
 Na T[4] Nb Nc Nd    -5940.09690389      -5940.09690389
 Na T[3] Nx Nyz       9387.05673947       3446.95983558
 Na X[3] Ny Nz       14406.07903540      17853.03887098
 Nx A[3] Ny Nz        4802.02634513      22655.06521611
 Na X[2] Nyz        -31743.17526174      -9088.11004562
 Nx A[2] Nyz        -31585.63154322     -40673.74158884

@ Cubic response function value in a.u. for
@ A operator, symmetry, frequency:   ZDIPLEN    1 -0.058400
@ B operator, symmetry, frequency:   ZDIPLEN    1  0.058400
@ C operator, symmetry, frequency:   ZDIPLEN    1 -0.058400
@ D operator, symmetry, frequency:   ZDIPLEN    1  0.058400

@ << A; B, C, D >>  =      -40673.74158884



   Contribution                Term         Accumulated
 ------------------------------------------------------
 Na T[4] Nb Nc Nd    -4124.48498379      -4124.48498379
 Na T[3] Nx Nyz      -3467.40297403      -7591.88795782
 Na X[3] Ny Nz       12268.13713604       4676.24917822
 Nx A[3] Ny Nz        1713.25769317       6389.50687140
 Na X[2] Nyz        -32764.39236355     -26374.88549216
 Nx A[2] Nyz        -24469.48564649     -50844.37113865

@ Cubic response function value in a.u. for
@ A operator, symmetry, frequency:   XDIPLEN    2 -0.058400
@ B operator, symmetry, frequency:   XDIPLEN    2  0.058400
@ C operator, symmetry, frequency:   ZDIPLEN    1 -0.058400
@ D operator, symmetry, frequency:   ZDIPLEN    1  0.058400

@ << A; B, C, D >>  =      -50844.37113865



   Contribution                Term         Accumulated
 ------------------------------------------------------
 Na T[4] Nb Nc Nd     -873.91978034       -873.91978034
 Na T[3] Nx Nyz      -2315.92725491      -3189.84703526
 Na X[3] Ny Nz        1725.02974393      -1464.81729132
 Nx A[3] Ny Nz         671.68441742       -793.13287391
 Na X[2] Nyz         27585.77337114      26792.64049723
 Nx A[2] Nyz         17228.79362919      44021.43412643

@ Cubic response function value in a.u. for
@ A operator, symmetry, frequency:   YDIPLEN    3 -0.058400
@ B operator, symmetry, frequency:   YDIPLEN    3  0.058400
@ C operator, symmetry, frequency:   ZDIPLEN    1 -0.058400
@ D operator, symmetry, frequency:   ZDIPLEN    1  0.058400

@ << A; B, C, D >>  =       44021.43412643



   Contribution                Term         Accumulated
 ------------------------------------------------------
 Na T[4] Nb Nc Nd    -1500.22138010      -1500.22138010
 Na T[3] Nx Nyz       -553.74777259      -2053.96915269
 Na X[3] Ny Nz        6454.34953947       4400.38038679
 Nx A[3] Ny Nz        1456.86274975       5857.24313654
 Na X[2] Nyz        -42758.32527042     -36901.08213388
 Nx A[2] Nyz        -23242.79116133     -60143.87329521

@ Cubic response function value in a.u. for
@ A operator, symmetry, frequency:   XDIPLEN    2 -0.058400
@ B operator, symmetry, frequency:   ZDIPLEN    1  0.058400
@ C operator, symmetry, frequency:   XDIPLEN    2 -0.058400
@ D operator, symmetry, frequency:   ZDIPLEN    1  0.058400

@ << A; B, C, D >>  =      -60143.87329521



   Contribution                Term         Accumulated
 ------------------------------------------------------
 Na T[4] Nb Nc Nd     -751.50176603       -751.50176603
 Na T[3] Nx Nyz       3321.47171943       2569.96995339
 Na X[3] Ny Nz        1481.77734197       4051.74729536
 Nx A[3] Ny Nz         596.29717467       4648.04447003
 Na X[2] Nyz        -19217.85643238     -14569.81196235
 Nx A[2] Nyz        -16481.82699654     -31051.63895890

@ Cubic response function value in a.u. for
@ A operator, symmetry, frequency:   YDIPLEN    3 -0.058400
@ B operator, symmetry, frequency:   ZDIPLEN    1  0.058400
@ C operator, symmetry, frequency:   YDIPLEN    3 -0.058400
@ D operator, symmetry, frequency:   ZDIPLEN    1  0.058400

@ << A; B, C, D >>  =      -31051.63895890



   Contribution                Term         Accumulated
 ------------------------------------------------------
 Na T[4] Nb Nc Nd    -1527.08704567      -1527.08704567
 Na T[3] Nx Nyz       5946.95888652       4419.87184085
 Na X[3] Ny Nz        4950.96776304       9370.83960389
 Nx A[3] Ny Nz        2344.90968442      11715.74928831
 Na X[2] Nyz        -29720.09930079     -18004.35001248
 Nx A[2] Nyz        -42149.89635868     -60154.24637117

@ Cubic response function value in a.u. for
@ A operator, symmetry, frequency:   ZDIPLEN    1 -0.058400
@ B operator, symmetry, frequency:   XDIPLEN    2  0.058400
@ C operator, symmetry, frequency:   ZDIPLEN    1 -0.058400
@ D operator, symmetry, frequency:   XDIPLEN    2  0.058400

@ << A; B, C, D >>  =      -60154.24637117



   Contribution                Term         Accumulated
 ------------------------------------------------------
 Na T[4] Nb Nc Nd   182929.47831074     182929.47831074
 Na T[3] Nx Nyz    -107434.29438520      75495.18392554
 Na X[3] Ny Nz       72833.22029683     148328.40422237
 Nx A[3] Ny Nz       24277.74009894     172606.14432131
 Na X[2] Nyz        -17808.34368813     154797.80063318
 Nx A[2] Nyz        -23182.69004123     131615.11059195

@ Cubic response function value in a.u. for
@ A operator, symmetry, frequency:   XDIPLEN    2 -0.058400
@ B operator, symmetry, frequency:   XDIPLEN    2  0.058400
@ C operator, symmetry, frequency:   XDIPLEN    2 -0.058400
@ D operator, symmetry, frequency:   XDIPLEN    2  0.058400

@ << A; B, C, D >>  =      131615.11059195



   Contribution                Term         Accumulated
 ------------------------------------------------------
 Na T[4] Nb Nc Nd    -1886.53003830      -1886.53003830
 Na T[3] Nx Nyz     -11945.26767785     -13831.79771615
 Na X[3] Ny Nz        7231.05915556      -6600.73856060
 Nx A[3] Ny Nz        3379.76725482      -3220.97130578
 Na X[2] Nyz       -263632.53277651    -266853.50408228
 Nx A[2] Nyz       -184089.97504002    -450943.47912230

@ Cubic response function value in a.u. for
@ A operator, symmetry, frequency:   YDIPLEN    3 -0.058400
@ B operator, symmetry, frequency:   YDIPLEN    3  0.058400
@ C operator, symmetry, frequency:   XDIPLEN    2 -0.058400
@ D operator, symmetry, frequency:   XDIPLEN    2  0.058400

@ << A; B, C, D >>  =     -450943.47912230



   Contribution                Term         Accumulated
 ------------------------------------------------------
 Na T[4] Nb Nc Nd    -1454.51061155      -1454.51061155
 Na T[3] Nx Nyz       1375.73256579        -78.77804576
 Na X[3] Ny Nz        5636.74746743       5557.96942167
 Nx A[3] Ny Nz        2628.68406933       8186.65349100
 Na X[2] Nyz        -20098.35402584     -11911.70053484
 Nx A[2] Nyz        -17822.13450703     -29733.83504188

@ Cubic response function value in a.u. for
@ A operator, symmetry, frequency:   YDIPLEN    3 -0.058400
@ B operator, symmetry, frequency:   XDIPLEN    2  0.058400
@ C operator, symmetry, frequency:   YDIPLEN    3 -0.058400
@ D operator, symmetry, frequency:   XDIPLEN    2  0.058400

@ << A; B, C, D >>  =      -29733.83504188



   Contribution                Term         Accumulated
 ------------------------------------------------------
 Na T[4] Nb Nc Nd     -628.12944094       -628.12944094
 Na T[3] Nx Nyz       2156.66125154       1528.53181059
 Na X[3] Ny Nz        1713.97037811       3242.50218871
 Nx A[3] Ny Nz         468.95206536       3711.45425406
 Na X[2] Nyz        -15976.98342208     -12265.52916802
 Nx A[2] Nyz        -18792.85230158     -31058.38146960

@ Cubic response function value in a.u. for
@ A operator, symmetry, frequency:   ZDIPLEN    1 -0.058400
@ B operator, symmetry, frequency:   YDIPLEN    3  0.058400
@ C operator, symmetry, frequency:   ZDIPLEN    1 -0.058400
@ D operator, symmetry, frequency:   YDIPLEN    3  0.058400

@ << A; B, C, D >>  =      -31058.38146960



   Contribution                Term         Accumulated
 ------------------------------------------------------
 Na T[4] Nb Nc Nd    -1551.55507500      -1551.55507500
 Na T[3] Nx Nyz       5053.73538177       3502.18030677
 Na X[3] Ny Nz        6599.35849670      10101.53880348
 Nx A[3] Ny Nz        1450.01791871      11551.55672219
 Na X[2] Nyz        -19245.47740197      -7693.92067979
 Nx A[2] Nyz        -22022.97009724     -29716.89077703

@ Cubic response function value in a.u. for
@ A operator, symmetry, frequency:   XDIPLEN    2 -0.058400
@ B operator, symmetry, frequency:   YDIPLEN    3  0.058400
@ C operator, symmetry, frequency:   XDIPLEN    2 -0.058400
@ D operator, symmetry, frequency:   YDIPLEN    3  0.058400

@ << A; B, C, D >>  =      -29716.89077703



   Contribution                Term         Accumulated
 ------------------------------------------------------
 Na T[4] Nb Nc Nd    -1007.41319872      -1007.41319872
 Na T[3] Nx Nyz       5013.41578934       4006.00259061
 Na X[3] Ny Nz        3719.77663247       7725.77922308
 Nx A[3] Ny Nz        1239.92554416       8965.70476723
 Na X[2] Nyz        -22464.09370343     -13498.38893619
 Nx A[2] Nyz        -22578.60342891     -36076.99236510

@ Cubic response function value in a.u. for
@ A operator, symmetry, frequency:   YDIPLEN    3 -0.058400
@ B operator, symmetry, frequency:   YDIPLEN    3  0.058400
@ C operator, symmetry, frequency:   YDIPLEN    3 -0.058400
@ D operator, symmetry, frequency:   YDIPLEN    3  0.058400

@ << A; B, C, D >>  =      -36076.99236510



  Summary of gamma values for a set of frequencies
 -------------------------------------------------

@ B-freq:  0.058400
@ C-freq: -0.058400
@ D-freq:  0.058400

@ gamma(X;X,X,X)    -131615.1106
@ gamma(X;X,Y,Y)     450943.4791
@ gamma(X;Y,Y,X)     450943.4791
@ gamma(X;Y,X,Y)      29716.8908
@ gamma(X;X,Z,Z)      50844.3711
@ gamma(X;Z,Z,X)      50844.3711
@ gamma(X;Z,X,Z)      60143.8733
@ gamma(Y;Y,X,X)     450943.4791
@ gamma(Y;X,X,Y)     450943.4791
@ gamma(Y;X,Y,X)      29733.8350
@ gamma(Y;Y,Y,Y)      36076.9924
@ gamma(Y;Y,Z,Z)     -44021.4341
@ gamma(Y;Z,Z,Y)     -44021.4341
@ gamma(Y;Z,Y,Z)      31051.6390
@ gamma(Z;Z,X,X)      50844.3711
@ gamma(Z;X,X,Z)      50844.3711
@ gamma(Z;X,Z,X)      60154.2464
@ gamma(Z;Z,Y,Y)     -44021.4341
@ gamma(Z;Y,Y,Z)     -44021.4341
@ gamma(Z;Y,Z,Y)      31058.3815
@ gamma(Z;Z,Z,Z)      40673.7416

@ Averaged gamma parallel to the applied field is    127222.093369

  Total CPU  time used in RESPONSE:   7 hours  1 minute   9 seconds
  Total wall time used in RESPONSE:   7 hours  1 minute  17 seconds


                   .-------------------------------------------.
                   | End of Dynamic Property Section (RESPONS) |
                   `-------------------------------------------'

  Total CPU  time used in DALTON:   7 hours 58 minutes 24 seconds
  Total wall time used in DALTON:   7 hours 58 minutes 34 seconds

 
     Date and time (Linux)  : Mon Jan 13 07:47:21 2020
     Host name              : Lab2-333-NPs                            
