

     ************************************************************************
     *************** Dalton - An Electronic Structure Program ***************
     ************************************************************************

    This is output from DALTON release Dalton2018.1 (2019)
         ( Web site: http://daltonprogram.org )

   ----------------------------------------------------------------------------

    NOTE:
     
    Dalton is an experimental code for the evaluation of molecular
    properties using (MC)SCF, DFT, CI, and CC wave functions.
    The authors accept no responsibility for the performance of
    the code or for the correctness of the results.
     
    The code (in whole or part) is provided under a licence and
    is not to be reproduced for further distribution without
    the written permission of the authors or their representatives.
     
    See the home page "http://daltonprogram.org" for further information.
     
    If results obtained with this code are published,
    the appropriate citations would be both of:
     
       K. Aidas, C. Angeli, K. L. Bak, V. Bakken, R. Bast,
       L. Boman, O. Christiansen, R. Cimiraglia, S. Coriani,
       P. Dahle, E. K. Dalskov, U. Ekstroem,
       T. Enevoldsen, J. J. Eriksen, P. Ettenhuber, B. Fernandez,
       L. Ferrighi, H. Fliegl, L. Frediani, K. Hald, A. Halkier,
       C. Haettig, H. Heiberg, T. Helgaker, A. C. Hennum,
       H. Hettema, E. Hjertenaes, S. Hoest, I.-M. Hoeyvik,
       M. F. Iozzi, B. Jansik, H. J. Aa. Jensen, D. Jonsson,
       P. Joergensen, J. Kauczor, S. Kirpekar,
       T. Kjaergaard, W. Klopper, S. Knecht, R. Kobayashi, H. Koch,
       J. Kongsted, A. Krapp, K. Kristensen, A. Ligabue,
       O. B. Lutnaes, J. I. Melo, K. V. Mikkelsen, R. H. Myhre,
       C. Neiss, C. B. Nielsen, P. Norman, J. Olsen,
       J. M. H. Olsen, A. Osted, M. J. Packer, F. Pawlowski,
       T. B. Pedersen, P. F. Provasi, S. Reine, Z. Rinkevicius,
       T. A. Ruden, K. Ruud, V. Rybkin, P. Salek, C. C. M. Samson,
       A. Sanchez de Meras, T. Saue, S. P. A. Sauer,
       B. Schimmelpfennig, K. Sneskov, A. H. Steindal,
       K. O. Sylvester-Hvid, P. R. Taylor, A. M. Teale,
       E. I. Tellgren, D. P. Tew, A. J. Thorvaldsen, L. Thoegersen,
       O. Vahtras, M. A. Watson, D. J. D. Wilson, M. Ziolkowski
       and H. Agren,
       "The Dalton quantum chemistry program system",
       WIREs Comput. Mol. Sci. 2014, 4:269–284 (doi: 10.1002/wcms.1172)
     
    and
     
       Dalton, a molecular electronic structure program,
       Release Dalton2018.1 (2019), see http://daltonprogram.org
   ----------------------------------------------------------------------------

    Authors in alphabetical order (major contribution(s) in parenthesis):

  Kestutis Aidas,           Vilnius University,           Lithuania   (QM/MM)
  Celestino Angeli,         University of Ferrara,        Italy       (NEVPT2)
  Keld L. Bak,              UNI-C,                        Denmark     (AOSOPPA, non-adiabatic coupling, magnetic properties)
  Vebjoern Bakken,          University of Oslo,           Norway      (DALTON; geometry optimizer, symmetry detection)
  Radovan Bast,             UiT The Arctic U. of Norway,  Norway      (DALTON installation and execution frameworks)
  Pablo Baudin,             University of Valencia,       Spain       (Cholesky excitation energies)
  Linus Boman,              NTNU,                         Norway      (Cholesky decomposition and subsystems)
  Ove Christiansen,         Aarhus University,            Denmark     (CC module)
  Renzo Cimiraglia,         University of Ferrara,        Italy       (NEVPT2)
  Sonia Coriani,            Technical Univ. of Denmark,   Denmark     (CC module, MCD in RESPONS)
  Janusz Cukras,            University of Trieste,        Italy       (MChD in RESPONS)
  Paal Dahle,               University of Oslo,           Norway      (Parallelization)
  Erik K. Dalskov,          UNI-C,                        Denmark     (SOPPA)
  Thomas Enevoldsen,        Univ. of Southern Denmark,    Denmark     (SOPPA)
  Janus J. Eriksen,         Aarhus University,            Denmark     (Polarizable embedding model, TDA)
  Rasmus Faber,             University of Copenhagen,     Denmark     (Vib.avg. NMR with SOPPA, parallel AO-SOPPA)
  Tobias Fahleson,          KTH Stockholm,                Sweden      (Damped cubic response)
  Berta Fernandez,          U. of Santiago de Compostela, Spain       (doublet spin, ESR in RESPONS)
  Lara Ferrighi,            Aarhus University,            Denmark     (PCM Cubic response)
  Heike Fliegl,             University of Oslo,           Norway      (CCSD(R12))
  Luca Frediani,            UiT The Arctic U. of Norway,  Norway      (PCM)
  Bin Gao,                  UiT The Arctic U. of Norway,  Norway      (Gen1Int library)
  Christof Haettig,         Ruhr-University Bochum,       Germany     (CC module)
  Kasper Hald,              Aarhus University,            Denmark     (CC module)
  Asger Halkier,            Aarhus University,            Denmark     (CC module)
  Frederik Beyer Hansen,    University of Copenhagen,     Denmark     (Parallel AO-SOPPA)
  Erik D. Hedegaard,        Univ. of Southern Denmark,    Denmark     (Polarizable embedding model, QM/MM)
  Hanne Heiberg,            University of Oslo,           Norway      (geometry analysis, selected one-electron integrals)
  Trygve Helgaker,          University of Oslo,           Norway      (DALTON; ABACUS, ERI, DFT modules, London, and much more)
  Alf Christian Hennum,     University of Oslo,           Norway      (Parity violation)
  Hinne Hettema,            University of Auckland,       New Zealand (quadratic response in RESPONS; SIRIUS supersymmetry)
  Eirik Hjertenaes,         NTNU,                         Norway      (Cholesky decomposition)
  Pi A. B. Haase,           University of Copenhagen,     Denmark     (Triplet AO-SOPPA)
  Maria Francesca Iozzi,    University of Oslo,           Norway      (RPA)
  Christoph Jacob           TU Braunschweig               Germany     (Frozen density embedding model)
  Brano Jansik              Technical Univ. of Ostrava    Czech Rep.  (DFT cubic response)
  Hans Joergen Aa. Jensen,  Univ. of Southern Denmark,    Denmark     (DALTON; SIRIUS, RESPONS, ABACUS modules, London, and much more)
  Dan Jonsson,              UiT The Arctic U. of Norway,  Norway      (cubic response in RESPONS module)
  Poul Joergensen,          Aarhus University,            Denmark     (RESPONS, ABACUS, and CC modules)
  Maciej Kaminski,          University of Warsaw,         Poland      (CPPh in RESPONS)
  Joanna Kauczor,           Linkoeping University,        Sweden      (Complex polarization propagator (CPP) module)
  Sheela Kirpekar,          Univ. of Southern Denmark,    Denmark     (Mass-velocity & Darwin integrals)
  Wim Klopper,              KIT Karlsruhe,                Germany     (R12 code in CC, SIRIUS, and ABACUS modules)
  Stefan Knecht,            ETH Zurich,                   Switzerland (Parallel CI and MCSCF)
  Rika Kobayashi,           Australian National Univ.,    Australia   (DIIS in CC, London in MCSCF)
  Henrik Koch,              NTNU,                         Norway      (CC module, Cholesky decomposition)
  Jacob Kongsted,           Univ. of Southern Denmark,    Denmark     (Polarizable embedding model, QM/MM)
  Andrea Ligabue,           University of Modena,         Italy       (CTOCD, AOSOPPA)
  Nanna H. List             Univ. of Southern Denmark,    Denmark     (Polarizable embedding model)
  Ola B. Lutnaes,           University of Oslo,           Norway      (DFT Hessian)
  Juan I. Melo,             University of Buenos Aires,   Argentina   (LRESC, Relativistic Effects on NMR Shieldings)
  Kurt V. Mikkelsen,        University of Copenhagen,     Denmark     (MC-SCRF and QM/MM)
  Rolf H. Myhre,            NTNU,                         Norway      (Subsystems and CC3)
  Christian Neiss,          Univ. Erlangen-Nuernberg,     Germany     (CCSD(R12))
  Christian B. Nielsen,     University of Copenhagen,     Denmark     (QM/MM)
  Patrick Norman,           KTH Stockholm,                Sweden      (Cubic response and complex frequency response in RESPONS)
  Jeppe Olsen,              Aarhus University,            Denmark     (SIRIUS CI/density modules)
  Jogvan Magnus H. Olsen,   Univ. of Southern Denmark,    Denmark     (Polarizable embedding model, QM/MM)
  Anders Osted,             Copenhagen University,        Denmark     (QM/MM)
  Martin J. Packer,         University of Sheffield,      UK          (SOPPA)
  Filip Pawlowski,          Kazimierz Wielki University,  Poland      (CC3)
  Morten N. Pedersen,       Univ. of Southern Denmark,    Denmark     (Polarizable embedding model)
  Thomas B. Pedersen,       University of Oslo,           Norway      (Cholesky decomposition)
  Patricio F. Provasi,      University of Northeastern,   Argentina   (Analysis of coupling constants in localized orbitals)
  Zilvinas Rinkevicius,     KTH Stockholm,                Sweden      (open-shell DFT, ESR)
  Elias Rudberg,            KTH Stockholm,                Sweden      (DFT grid and basis info)
  Torgeir A. Ruden,         University of Oslo,           Norway      (Numerical derivatives in ABACUS)
  Kenneth Ruud,             UiT The Arctic U. of Norway,  Norway      (DALTON; ABACUS magnetic properties and much more)
  Pawel Salek,              KTH Stockholm,                Sweden      (DALTON; DFT code)
  Claire C. M. Samson       University of Karlsruhe       Germany     (Boys localization, r12 integrals in ERI)
  Alfredo Sanchez de Meras, University of Valencia,       Spain       (CC module, Cholesky decomposition)
  Trond Saue,               Paul Sabatier University,     France      (direct Fock matrix construction)
  Stephan P. A. Sauer,      University of Copenhagen,     Denmark     (SOPPA(CCSD), SOPPA prop., AOSOPPA, vibrational g-factors)
  Andre S. P. Gomes,        CNRS/Universite de Lille,     France      (Frozen density embedding model)
  Bernd Schimmelpfennig,    Forschungszentrum Karlsruhe,  Germany     (AMFI module)
  Kristian Sneskov,         Aarhus University,            Denmark     (Polarizable embedding model, QM/MM)
  Arnfinn H. Steindal,      UiT The Arctic U. of Norway,  Norway      (parallel QM/MM, Polarizable embedding model)
  Casper Steinmann,         Univ. of Southern Denmark,    Denmark     (QFIT, Polarizable embedding model)
  K. O. Sylvester-Hvid,     University of Copenhagen,     Denmark     (MC-SCRF)
  Peter R. Taylor,          VLSCI/Univ. of Melbourne,     Australia   (Symmetry handling ABACUS, integral transformation)
  Andrew M. Teale,          University of Nottingham,     England     (DFT-AC, DFT-D)
  David P. Tew,             University of Bristol,        England     (CCSD(R12))
  Olav Vahtras,             KTH Stockholm,                Sweden      (triplet response, spin-orbit, ESR, TDDFT, open-shell DFT)
  Lucas Visscher,           Vrije Universiteit Amsterdam, Netherlands (Frozen density embedding model)
  David J. Wilson,          La Trobe University,          Australia   (DFT Hessian and DFT magnetizabilities)
  Hans Agren,               KTH Stockholm,                Sweden      (SIRIUS module, RESPONS, MC-SCRF solvation model)
 --------------------------------------------------------------------------------

     Date and time (Linux)  : Sat Jan 11 00:02:52 2020
     Host name              : Lab2-333-NPs                            

 * Work memory size             :  1024000000 =  7.629 gigabytes.

 * Directories for basis set searches:
   1) /home/lab333/dalton/build_2018_atlas
   2) /home/lab333/dalton/build_2018_atlas/basis


Compilation information
-----------------------

 Who compiled             | lab333
 Host                     | Lab2-333-NPs
 System                   | Linux-4.4.0-43-Microsoft
 CMake generator          | Unix Makefiles
 Processor                | x86_64
 64-bit integers          | OFF
 MPI                      | OFF
 Fortran compiler         | /usr/bin/gfortran
 Fortran compiler version | GNU Fortran (Ubuntu 7.3.0-27ubuntu1~18.04) 7.3.0
 C compiler               | /usr/bin/gcc
 C compiler version       | gcc (Ubuntu 7.3.0-27ubuntu1~18.04) 7.3.0
 C++ compiler             | /usr/bin/g++
 C++ compiler version     | g++ (Ubuntu 7.3.0-27ubuntu1~18.04) 7.3.0
 BLAS                     | /usr/lib/x86_64-linux-gnu/libf77blas.so;/usr/lib/x
                          | 86_64-linux-gnu/libcblas.so;/usr/lib/x86_64-linux-
                          | gnu/libatlas.so
 LAPACK                   | /usr/lib/x86_64-linux-gnu/libatlas.so;/usr/lib/x86
                          | _64-linux-gnu/atlas/liblapack.so
 Static linking           | OFF
 Last Git revision        | da625bf48c74028e805616daee31bc5d76b3a20d
 Git branch               | (HEAD detached at Dalton2018.1)
 Configuration time       | 2019-01-18 10:20:51.437510


   Content of the .dal input file
 ----------------------------------

**DALTON INPUT
.RUN RESPONSE
.DIRECT
**WAVE FUNCTIONS
.HF
.MP2
.MCSCF
*CONFIGURATION INPUT
.SPIN MULTIPLICITY
1
.SYMMETRY
1
.INACTIVE ORBITALS
15 10 2 0
.CAS SPACE
1 1 2 3
.ELECTRONS
10
*ORBITAL INPUT
.MOSTART
.HUCKEL
*OPTIMIZATION
.DETERMINANTS
.STATE
1
*CI VECTOR
.PLUS COMBINATIONS
**RESPONSE
*CUBIC
.DIPLEN
.BFREQ
1
0.0584
.CFREQ
1
-0.0584
.DFREQ
1
0.0584
**END OF DALTON INPUT


   Content of the .mol file
 ----------------------------

BASIS
aug-cc-pCVDZ
 nitrobenzene
 Generated by the Dalton Input File Plugin for Avogadro
Atomtypes=4 Angstrom Generators=2 X Y
Charge=6.0 Atoms=4
C        0.0000000000            0.0000000000           -0.0265759623
C       -1.2190534920            0.0000000000           -0.6979856948
C       -1.2105095870            0.0000000000           -2.0897394457
C        0.0000000000            0.0000000000           -2.7841484631
Charge=7.0 Atoms=1
N        0.0000000000            0.0000000000            1.4549291696
Charge=8.0 Atoms=1
O       0.5165807333051649            0.0            2.565419687282958
Charge=1.0 Atoms=3
H       -2.1410602955            0.0000000000           -0.1327964319
H       -2.1492827751            0.0000000000           -2.6311811056
H        0.0000000000            0.0000000000           -3.8683953478


       *******************************************************************
       *********** Output from DALTON general input processing ***********
       *******************************************************************

 --------------------------------------------------------------------------------
   Overall default print level:    0
   Print level for DALTON.STAT:    1

    AO-direct calculation (in sections where implemented)
    HERMIT 1- and 2-electron integral sections will be executed
    "Old" integral transformation used (limited to max 255 basis functions)
    Wave function sections will be executed (SIRIUS module)
    Dynamic molecular response properties section will be executed (RESPONSE module)
 --------------------------------------------------------------------------------


   ****************************************************************************
   *************** Output of molecule and basis set information ***************
   ****************************************************************************


    The two title cards from your ".mol" input:
    ------------------------------------------------------------------------
 1:  nitrobenzene                                                           
 2:  Generated by the Dalton Input File Plugin for Avogadro                 
    ------------------------------------------------------------------------

  Coordinates are entered in Angstrom and converted to atomic units.
          - Conversion factor : 1 bohr = 0.52917721 A

  Atomic type no.    1
  --------------------
  Nuclear charge:   6.00000
  Number of symmetry independent centers:    4
  Number of basis sets to read;    2
  Basis set file used for this atomic type with Z =   6 :
     "/home/lab333/dalton/build_2018_atlas/basis/aug-cc-pCVDZ"

  Atomic type no.    2
  --------------------
  Nuclear charge:   7.00000
  Number of symmetry independent centers:    1
  Number of basis sets to read;    2
  Basis set file used for this atomic type with Z =   7 :
     "/home/lab333/dalton/build_2018_atlas/basis/aug-cc-pCVDZ"

  Atomic type no.    3
  --------------------
  Nuclear charge:   8.00000
  Number of symmetry independent centers:    1
  Number of basis sets to read;    2
  Basis set file used for this atomic type with Z =   8 :
     "/home/lab333/dalton/build_2018_atlas/basis/aug-cc-pCVDZ"

  Atomic type no.    4
  --------------------
  Nuclear charge:   1.00000
  Number of symmetry independent centers:    3
  Number of basis sets to read;    2
  Basis set file used for this atomic type with Z =   1 :
     "/home/lab333/dalton/build_2018_atlas/basis/aug-cc-pCVDZ"


                         SYMGRP: Point group information
                         -------------------------------

@    Point group: C2v

@  * The irrep name for each symmetry:    1: A1     2: B1     3: B2     4: A2 

   * The point group was generated by:

      Reflection in the yz-plane
      Reflection in the xz-plane

   * Group multiplication table

        |  E   C2z  Oxz  Oyz
   -----+--------------------
     E  |  E   C2z  Oxz  Oyz
    C2z | C2z   E   Oyz  Oxz
    Oxz | Oxz  Oyz   E   C2z
    Oyz | Oyz  Oxz  C2z   E 

   * Character table

        |  E   C2z  Oxz  Oyz
   -----+--------------------
    A1  |   1    1    1    1
    B1  |   1   -1    1   -1
    B2  |   1   -1   -1    1
    A2  |   1    1   -1   -1

   * Direct product table

        | A1   B1   B2   A2 
   -----+--------------------
    A1  | A1   B1   B2   A2 
    B1  | B1   A1   A2   B2 
    B2  | B2   A2   A1   B1 
    A2  | A2   B2   B1   A1 


                                 Isotopic Masses
                                 ---------------

                           C          12.000000
                           C   _1     12.000000
                           C   _2     12.000000
                           C   _1     12.000000
                           C   _2     12.000000
                           C          12.000000
                           N          14.003074
                           O   _1     15.994915
                           O   _2     15.994915
                           H   _1      1.007825
                           H   _2      1.007825
                           H   _1      1.007825
                           H   _2      1.007825
                           H           1.007825

                       Total mass:   123.032029 amu
                       Natural abundance:  92.716 %

 Center-of-mass coordinates (a.u.):    0.000000    0.000000   -0.117703


  Atoms and basis sets
  --------------------

  Number of atom types :    4
  Total number of atoms:   14

  Basis set used is "aug-cc-pCVDZ" from the basis set library.

  label    atoms   charge   prim   cont     basis
  ----------------------------------------------------------------------
  C           6    6.0000    39    27      [11s6p2d|5s4p2d]                                   
  N           1    7.0000    39    27      [11s6p2d|5s4p2d]                                   
  O           2    8.0000    39    27      [11s6p2d|5s4p2d]                                   
  H           5    1.0000    11     9      [5s2p|3s2p]                                        
  ----------------------------------------------------------------------
  total:     14   64.0000   406   288
  ----------------------------------------------------------------------
  Spherical harmonic basis used.

  Threshold for neglecting AO integrals:  1.00D-12


  Symmetry Coordinates
  --------------------

  Number of coordinates in each symmetry:    14   14    9    5


   Interatomic separations (in Angstrom):
   --------------------------------------

            C           C   _1      C   _2      C   _1      C   _2      C     
            ------      ------      ------      ------      ------      ------
 C     :    0.000000
 C   _1:    1.391719    0.000000
 C   _2:    1.391719    2.438107    0.000000
 C   _1:    2.392065    1.391780    2.799956    0.000000
 C   _2:    2.392065    2.799956    1.391780    2.421019    0.000000
 C     :    2.757573    2.416230    2.416230    1.395542    1.395542    0.000000
 N     :    1.481505    2.474093    2.474093    3.745665    3.745665    4.239078
 O   _1:    2.642971    3.696247    3.338156    4.965214    4.706596    5.374452
 O   _2:    2.642971    3.338156    3.696247    4.706596    4.965214    5.374452
 H   _1:    2.143694    1.081451    3.407316    2.166922    3.881063    3.407904
 H   _2:    2.143694    3.407316    1.081451    3.881063    2.166922    3.407904
 H   _1:    3.376890    2.145360    3.883675    1.083722    3.403140    2.154719
 H   _2:    3.376890    3.883675    2.145360    3.403140    1.083722    2.154719
 H     :    3.841819    3.396703    3.396703    2.151500    2.151500    1.084247

            N           O   _1      O   _2      H   _1      H   _2      H   _1
            ------      ------      ------      ------      ------      ------
 N     :    0.000000
 O   _1:    1.224763    0.000000
 O   _2:    1.224763    1.033161    0.000000
 H   _1:    2.665523    3.787272    3.149493    0.000000
 H   _2:    2.665523    3.149493    3.787272    4.282121    0.000000
 H   _1:    4.616894    5.840504    5.447052    2.498398    4.964773    0.000000
 H   _2:    4.616894    5.447052    5.840504    4.964773    2.498398    4.298566
 H     :    5.323325    6.454520    6.454520    4.305675    4.305675    2.479943

            H   _2      H     
            ------      ------
 H   _2:    0.000000
 H     :    2.479943    0.000000


  Max    interatomic separation is    6.4545 Angstrom (   12.1973 Bohr)
  between atoms   14 and    8, "H     " and "O   _1".

  Min HX interatomic separation is    1.0815 Angstrom (    2.0436 Bohr)

  Min YX interatomic separation is    1.0332 Angstrom (    1.9524 Bohr)


  Bond distances (Angstrom):
  --------------------------

                  atom 1     atom 2       distance
                  ------     ------       --------
  bond distance:  C   _1     C            1.391719
  bond distance:  C   _2     C            1.391719
  bond distance:  C   _1     C   _1       1.391780
  bond distance:  C   _2     C   _2       1.391780
  bond distance:  C          C   _1       1.395542
  bond distance:  C          C   _2       1.395542
  bond distance:  N          C            1.481505
  bond distance:  O   _1     N            1.224763
  bond distance:  O   _2     N            1.224763
  bond distance:  O   _2     O   _1       1.033161
  bond distance:  H   _1     C   _1       1.081451
  bond distance:  H   _2     C   _2       1.081451
  bond distance:  H   _1     C   _1       1.083722
  bond distance:  H   _2     C   _2       1.083722
  bond distance:  H          C            1.084247


  Bond angles (degrees):
  ----------------------

                  atom 1     atom 2     atom 3         angle
                  ------     ------     ------         -----
  bond angle:     C   _1     C          C   _2       122.311
  bond angle:     C   _1     C          N            118.844
  bond angle:     C   _2     C          N            118.844
  bond angle:     C          C   _1     C   _1       118.493
  bond angle:     C          C   _1     H   _1       119.647
  bond angle:     C   _1     C   _1     H   _1       121.860
  bond angle:     C          C   _2     C   _2       118.493
  bond angle:     C          C   _2     H   _2       119.647
  bond angle:     C   _2     C   _2     H   _2       121.860
  bond angle:     C   _1     C   _1     C            120.192
  bond angle:     C   _1     C   _1     H   _1       119.623
  bond angle:     C          C   _1     H   _1       120.185
  bond angle:     C   _2     C   _2     C            120.192
  bond angle:     C   _2     C   _2     H   _2       119.623
  bond angle:     C          C   _2     H   _2       120.185
  bond angle:     C   _1     C          C   _2       120.319
  bond angle:     C   _1     C          H            119.841
  bond angle:     C   _2     C          H            119.841
  bond angle:     C          N          O   _1       155.053
  bond angle:     C          N          O   _2       155.053
  bond angle:     O   _1     N          O   _2        49.894
  bond angle:     N          O   _1     O   _2        65.053
  bond angle:     N          O   _2     O   _1        65.053




 Principal moments of inertia (u*A**2) and principal axes
 --------------------------------------------------------

   IA      97.922011          0.000000    0.000000    1.000000
   IB     478.300482          1.000000    0.000000    0.000000
   IC     576.222493          0.000000    1.000000    0.000000


 Rotational constants
 --------------------

@    The molecule is planar.

               A                   B                   C

           5161.0358           1056.6140            877.0553 MHz
            0.172154            0.035245            0.029255 cm-1


@  Nuclear repulsion energy :  418.587416897267 Hartree


  Symmetry Orbitals
  -----------------

  Number of orbitals in each symmetry:         115   91   48   34


  Symmetry  A1 ( 1)

    1     C        1s         1
    2     C        1s         2
    3     C        1s         3
    4     C        1s         4
    5     C        1s         5
    6     C        2pz        8
    7     C        2pz       11
    8     C        2pz       14
    9     C        2pz       17
   10     C        3d0       20
   11     C        3d2+      22
   12     C        3d0       25
   13     C        3d2+      27
   14     C        1s        28 +   29
   15     C        1s        30 +   31
   16     C        1s        32 +   33
   17     C        1s        34 +   35
   18     C        1s        36 +   37
   19     C        2px       38 -   39
   20     C        2pz       42 +   43
   21     C        2px       44 -   45
   22     C        2pz       48 +   49
   23     C        2px       50 -   51
   24     C        2pz       54 +   55
   25     C        2px       56 -   57
   26     C        2pz       60 +   61
   27     C        3d0       66 +   67
   28     C        3d1+      68 -   69
   29     C        3d2+      70 +   71
   30     C        3d0       76 +   77
   31     C        3d1+      78 -   79
   32     C        3d2+      80 +   81
   33     C        1s        82 +   83
   34     C        1s        84 +   85
   35     C        1s        86 +   87
   36     C        1s        88 +   89
   37     C        1s        90 +   91
   38     C        2px       92 -   93
   39     C        2pz       96 +   97
   40     C        2px       98 -   99
   41     C        2pz      102 +  103
   42     C        2px      104 -  105
   43     C        2pz      108 +  109
   44     C        2px      110 -  111
   45     C        2pz      114 +  115
   46     C        3d0      120 +  121
   47     C        3d1+     122 -  123
   48     C        3d2+     124 +  125
   49     C        3d0      130 +  131
   50     C        3d1+     132 -  133
   51     C        3d2+     134 +  135
   52     C        1s       136
   53     C        1s       137
   54     C        1s       138
   55     C        1s       139
   56     C        1s       140
   57     C        2pz      143
   58     C        2pz      146
   59     C        2pz      149
   60     C        2pz      152
   61     C        3d0      155
   62     C        3d2+     157
   63     C        3d0      160
   64     C        3d2+     162
   65     N        1s       163
   66     N        1s       164
   67     N        1s       165
   68     N        1s       166
   69     N        1s       167
   70     N        2pz      170
   71     N        2pz      173
   72     N        2pz      176
   73     N        2pz      179
   74     N        3d0      182
   75     N        3d2+     184
   76     N        3d0      187
   77     N        3d2+     189
   78     O        1s       190 +  191
   79     O        1s       192 +  193
   80     O        1s       194 +  195
   81     O        1s       196 +  197
   82     O        1s       198 +  199
   83     O        2px      200 -  201
   84     O        2pz      204 +  205
   85     O        2px      206 -  207
   86     O        2pz      210 +  211
   87     O        2px      212 -  213
   88     O        2pz      216 +  217
   89     O        2px      218 -  219
   90     O        2pz      222 +  223
   91     O        3d0      228 +  229
   92     O        3d1+     230 -  231
   93     O        3d2+     232 +  233
   94     O        3d0      238 +  239
   95     O        3d1+     240 -  241
   96     O        3d2+     242 +  243
   97     H        1s       244 +  245
   98     H        1s       246 +  247
   99     H        1s       248 +  249
  100     H        2px      250 -  251
  101     H        2pz      254 +  255
  102     H        2px      256 -  257
  103     H        2pz      260 +  261
  104     H        1s       262 +  263
  105     H        1s       264 +  265
  106     H        1s       266 +  267
  107     H        2px      268 -  269
  108     H        2pz      272 +  273
  109     H        2px      274 -  275
  110     H        2pz      278 +  279
  111     H        1s       280
  112     H        1s       281
  113     H        1s       282
  114     H        2pz      285
  115     H        2pz      288


  Symmetry  B1 ( 2)

  116     C        2px        6
  117     C        2px        9
  118     C        2px       12
  119     C        2px       15
  120     C        3d1+      21
  121     C        3d1+      26
  122     C        1s        28 -   29
  123     C        1s        30 -   31
  124     C        1s        32 -   33
  125     C        1s        34 -   35
  126     C        1s        36 -   37
  127     C        2px       38 +   39
  128     C        2pz       42 -   43
  129     C        2px       44 +   45
  130     C        2pz       48 -   49
  131     C        2px       50 +   51
  132     C        2pz       54 -   55
  133     C        2px       56 +   57
  134     C        2pz       60 -   61
  135     C        3d0       66 -   67
  136     C        3d1+      68 +   69
  137     C        3d2+      70 -   71
  138     C        3d0       76 -   77
  139     C        3d1+      78 +   79
  140     C        3d2+      80 -   81
  141     C        1s        82 -   83
  142     C        1s        84 -   85
  143     C        1s        86 -   87
  144     C        1s        88 -   89
  145     C        1s        90 -   91
  146     C        2px       92 +   93
  147     C        2pz       96 -   97
  148     C        2px       98 +   99
  149     C        2pz      102 -  103
  150     C        2px      104 +  105
  151     C        2pz      108 -  109
  152     C        2px      110 +  111
  153     C        2pz      114 -  115
  154     C        3d0      120 -  121
  155     C        3d1+     122 +  123
  156     C        3d2+     124 -  125
  157     C        3d0      130 -  131
  158     C        3d1+     132 +  133
  159     C        3d2+     134 -  135
  160     C        2px      141
  161     C        2px      144
  162     C        2px      147
  163     C        2px      150
  164     C        3d1+     156
  165     C        3d1+     161
  166     N        2px      168
  167     N        2px      171
  168     N        2px      174
  169     N        2px      177
  170     N        3d1+     183
  171     N        3d1+     188
  172     O        1s       190 -  191
  173     O        1s       192 -  193
  174     O        1s       194 -  195
  175     O        1s       196 -  197
  176     O        1s       198 -  199
  177     O        2px      200 +  201
  178     O        2pz      204 -  205
  179     O        2px      206 +  207
  180     O        2pz      210 -  211
  181     O        2px      212 +  213
  182     O        2pz      216 -  217
  183     O        2px      218 +  219
  184     O        2pz      222 -  223
  185     O        3d0      228 -  229
  186     O        3d1+     230 +  231
  187     O        3d2+     232 -  233
  188     O        3d0      238 -  239
  189     O        3d1+     240 +  241
  190     O        3d2+     242 -  243
  191     H        1s       244 -  245
  192     H        1s       246 -  247
  193     H        1s       248 -  249
  194     H        2px      250 +  251
  195     H        2pz      254 -  255
  196     H        2px      256 +  257
  197     H        2pz      260 -  261
  198     H        1s       262 -  263
  199     H        1s       264 -  265
  200     H        1s       266 -  267
  201     H        2px      268 +  269
  202     H        2pz      272 -  273
  203     H        2px      274 +  275
  204     H        2pz      278 -  279
  205     H        2px      283
  206     H        2px      286


  Symmetry  B2 ( 3)

  207     C        2py        7
  208     C        2py       10
  209     C        2py       13
  210     C        2py       16
  211     C        3d1-      19
  212     C        3d1-      24
  213     C        2py       40 +   41
  214     C        2py       46 +   47
  215     C        2py       52 +   53
  216     C        2py       58 +   59
  217     C        3d2-      62 -   63
  218     C        3d1-      64 +   65
  219     C        3d2-      72 -   73
  220     C        3d1-      74 +   75
  221     C        2py       94 +   95
  222     C        2py      100 +  101
  223     C        2py      106 +  107
  224     C        2py      112 +  113
  225     C        3d2-     116 -  117
  226     C        3d1-     118 +  119
  227     C        3d2-     126 -  127
  228     C        3d1-     128 +  129
  229     C        2py      142
  230     C        2py      145
  231     C        2py      148
  232     C        2py      151
  233     C        3d1-     154
  234     C        3d1-     159
  235     N        2py      169
  236     N        2py      172
  237     N        2py      175
  238     N        2py      178
  239     N        3d1-     181
  240     N        3d1-     186
  241     O        2py      202 +  203
  242     O        2py      208 +  209
  243     O        2py      214 +  215
  244     O        2py      220 +  221
  245     O        3d2-     224 -  225
  246     O        3d1-     226 +  227
  247     O        3d2-     234 -  235
  248     O        3d1-     236 +  237
  249     H        2py      252 +  253
  250     H        2py      258 +  259
  251     H        2py      270 +  271
  252     H        2py      276 +  277
  253     H        2py      284
  254     H        2py      287


  Symmetry  A2 ( 4)

  255     C        3d2-      18
  256     C        3d2-      23
  257     C        2py       40 -   41
  258     C        2py       46 -   47
  259     C        2py       52 -   53
  260     C        2py       58 -   59
  261     C        3d2-      62 +   63
  262     C        3d1-      64 -   65
  263     C        3d2-      72 +   73
  264     C        3d1-      74 -   75
  265     C        2py       94 -   95
  266     C        2py      100 -  101
  267     C        2py      106 -  107
  268     C        2py      112 -  113
  269     C        3d2-     116 +  117
  270     C        3d1-     118 -  119
  271     C        3d2-     126 +  127
  272     C        3d1-     128 -  129
  273     C        3d2-     153
  274     C        3d2-     158
  275     N        3d2-     180
  276     N        3d2-     185
  277     O        2py      202 -  203
  278     O        2py      208 -  209
  279     O        2py      214 -  215
  280     O        2py      220 -  221
  281     O        3d2-     224 +  225
  282     O        3d1-     226 -  227
  283     O        3d2-     234 +  235
  284     O        3d1-     236 -  237
  285     H        2py      252 -  253
  286     H        2py      258 -  259
  287     H        2py      270 -  271
  288     H        2py      276 -  277

  Symmetries of electric field:  B1 (2)  B2 (3)  A1 (1)

  Symmetries of magnetic field:  B2 (3)  B1 (2)  A2 (4)


                     .---------------------------------------.
                     | Starting in Integral Section (HERMIT) |
                     `---------------------------------------'



 ***************************************************************************************
 ****************** Output from **INTEGRALS input processing (HERMIT) ******************
 ***************************************************************************************


 - Using defaults, no **INTEGRALS input found

 Default print level:        1

 Calculation of one-electron Hamiltonian integrals.

 Center of mass  (bohr):      0.000000000000      0.000000000000     -0.117703172414
 Operator center (bohr):      0.000000000000      0.000000000000      0.000000000000
 Gauge origin    (bohr):      0.000000000000      0.000000000000      0.000000000000
 Dipole origin   (bohr):      0.000000000000      0.000000000000      0.000000000000


     ************************************************************************
     ************************** Output from HERINT **************************
     ************************************************************************



                      Nuclear contribution to dipole moments
                      --------------------------------------

                 au               Debye          C m (/(10**-30)

      z    -16.02899616       -40.74164179      -135.89948882


  Time used in GABGEN     is       0.11 seconds
  Total CPU  time used in HERMIT:   0.41 seconds
  Total wall time used in HERMIT:   0.41 seconds


                        .----------------------------------.
                        | End of Integral Section (HERMIT) |
                        `----------------------------------'



                   .--------------------------------------------.
                   | Starting in Wave Function Section (SIRIUS) |
                   `--------------------------------------------'


 *** Output from Huckel module :

     Using EWMO model:          F
     Using EHT  model:          T
     Number of Huckel orbitals each symmetry:   24   17    6    3

 Huckel EHT eigenvalues for symmetry :  1
          -20.741281     -15.706231     -11.414839     -11.394398     -11.376674
          -11.362577      -1.994265      -1.578830      -1.279594      -1.023761
           -0.836760      -0.745634      -0.637209      -0.595893      -0.544813
           -0.439740      -0.314175      -0.237667      -0.219902      -0.213404
           -0.205728      -0.178502      -0.166811      -0.160386

 Huckel EHT eigenvalues for symmetry :  2
          -20.711563     -11.396450     -11.377841      -1.235283      -1.121365
           -0.881241      -0.569805      -0.533512      -0.479505      -0.416426
           -0.336290      -0.310587      -0.213869      -0.202820      -0.176271
           -0.165474      -0.163324

 Huckel EHT eigenvalues for symmetry :  3
           -0.860400      -0.702053      -0.489608      -0.394519      -0.281623
           -0.236533

 Huckel EHT eigenvalues for symmetry :  4
           -0.468657      -0.460148      -0.288960

 **********************************************************************
 *SIRIUS* a direct, restricted step, second order MCSCF program       *
 **********************************************************************

 
     Date and time (Linux)  : Sat Jan 11 00:02:52 2020
     Host name              : Lab2-333-NPs                            

 Title lines from ".mol" input file:
      nitrobenzene                                                           
      Generated by the Dalton Input File Plugin for Avogadro                 

 Print level on unit LUPRI =   2 is   0
 Print level on unit LUW4  =   2 is   5

@    MC-SCF optimization.

@    Multi-configurational response calculation.
@              Type: complete active space calculation (CAS).

@    This is a combination run starting with
@              a restricted, closed shell Hartree-Fock calculation
@              an MP2 calculation

 Fock matrices are calculated directly without use of integrals on disk.

 Initial molecular orbitals are obtained according to
 ".MOSTART EHT   " input option

     Wave function specification
     ============================
@    Wave function type        --- MC-SCF ---
@    Number of closed shell electrons          54
@    Number of electrons in active shells      10
@    Total charge of the molecule               0

@    Spin multiplicity and 2 M_S                1         0
@    Total number of symmetries                 4 (point group: C2v)
@    Reference state symmetry                   1 (irrep name : A1 )

     Orbital specifications
     ======================
@    Abelian symmetry species          All |    1    2    3    4
@                                          |  A1   B1   B2   A2 
                                       --- |  ---  ---  ---  ---
@    Inactive orbitals                  27 |   15   10    2    0
@    Active orbitals                     7 |    1    1    2    3
@    Secondary orbitals                254 |   99   80   44   31
@    Total number of orbitals          288 |  115   91   48   34
@    Number of basis functions         288 |  115   91   48   34

      ** Automatic occupation of RHF orbitals **

      -- Initial occupation of symmetries is determined from extended Huckel guess.           
      -- Initial occupation of symmetries is :
@    Occupied SCF orbitals              32 |   16   10    4    2

     Optimization information
     ========================
@    Number of determinants                 115
@    Number of orbital rotations           2762
     ------------------------------------------
@    Total number of variables             2877

     Maximum number of macro iterations      25
     Maximum number of micro iterations     600
     Threshold for MCSCF gradient      1.00D-05
     Number of initial trial vectors          1
     Number of initial CI iterations          3
     Number of simultaneous trial vectors     1

@    This calculation converges to the lowest state for the specified symmetry and spin species.

     Maximum number of NEO/NR iterations  24

    INFORMATION: Switched to "new" integral transformation (from 1988 ;-) )
    because more than 255 basis functions.


 ***********************************************
 ***** DIIS acceleration of SCF iterations *****
 ***********************************************

 C1-DIIS algorithm; max error vectors =    8

 Automatic occupation of symmetries with  64 electrons.

 Iter     Total energy    Error norm  Delta(E)    SCF occupation
 -----------------------------------------------------------------------------
   1  Screening settings (-IFTHRS, JTDIIS, DIFDEN, times)   -8    1    T  2.61D+01  2.61D+01
@  1  -431.990713289       6.44D+00  -4.32D+02    16  10   4   2
      Virial theorem: -V/T =      1.997285
@    MULPOP   C       0.50; C   _1  0.09; C   _2  0.09; C   _1  0.26; C   _2  0.26; C       0.19; N       0.00; O   _1 -0.24; O   _2 -0.24; H   _1 -0.19; 
@             H   _2 -0.19; H   _1 -0.18; H   _2 -0.18; H      -0.18; 
   1  Level shift: doubly occupied orbital energies shifted by -2.00D-01
 -----------------------------------------------------------------------------
   2  Screening settings (-IFTHRS, JTDIIS, DIFDEN, times)   -8    2    T  2.62D+01  2.62D+01
@  2  -433.647398707       1.43D+00  -1.66D+00    16  10   4   2
      Virial theorem: -V/T =      1.991566
@    MULPOP   C       1.64; C   _1  0.04; C   _2  0.04; C   _1  0.42; C   _2  0.42; C       0.38; N       0.25; O   _1 -0.51; O   _2 -0.51; H   _1 -0.45; 
@             H   _2 -0.45; H   _1 -0.41; H   _2 -0.41; H      -0.43; 
   2  Level shift: doubly occupied orbital energies shifted by -5.00D-02
 -----------------------------------------------------------------------------
   3  Screening settings (-IFTHRS, JTDIIS, DIFDEN, times)   -8    3    T  2.61D+01  2.61D+01
@  3  -433.762555478       4.12D-01  -1.15D-01    16  10   4   2
      Virial theorem: -V/T =      1.997409
@    MULPOP   C       2.10; C   _1 -0.07; C   _2 -0.07; C   _1  0.57; C   _2  0.57; C       0.32; N       0.15; O   _1 -0.59; O   _2 -0.59; H   _1 -0.51; 
@             H   _2 -0.51; H   _1 -0.46; H   _2 -0.46; H      -0.47; 
   3  Level shift: doubly occupied orbital energies shifted by -2.50D-02
 -----------------------------------------------------------------------------
   4  Screening settings (-IFTHRS, JTDIIS, DIFDEN, times)   -8    4    T  2.60D+01  2.60D+01
@  4  -433.774557169       1.35D-01  -1.20D-02    16  10   4   2
      Virial theorem: -V/T =      1.996253
@    MULPOP   C       2.13; C   _1 -0.10; C   _2 -0.10; C   _1  0.58; C   _2  0.58; C       0.32; N       0.07; O   _1 -0.57; O   _2 -0.57; H   _1 -0.49; 
@             H   _2 -0.49; H   _1 -0.45; H   _2 -0.45; H      -0.46; 
   4  Level shift: doubly occupied orbital energies shifted by -1.25D-02
 -----------------------------------------------------------------------------
   5  Screening settings (-IFTHRS, JTDIIS, DIFDEN, times)  -10    5    F  2.64D+01  2.64D+01
@  5  -433.775716203       5.24D-02  -1.16D-03    16  10   4   2
      Virial theorem: -V/T =      1.996055
@    MULPOP   C       2.16; C   _1 -0.11; C   _2 -0.11; C   _1  0.58; C   _2  0.58; C       0.30; N       0.07; O   _1 -0.58; O   _2 -0.58; H   _1 -0.49; 
@             H   _2 -0.49; H   _1 -0.44; H   _2 -0.44; H      -0.46; 
 -----------------------------------------------------------------------------
   6  Screening settings (-IFTHRS, JTDIIS, DIFDEN, times)  -10    6    T  2.62D+01  2.62D+01
@  6  -433.775896828       9.95D-03  -1.81D-04    16  10   4   2
      Virial theorem: -V/T =      1.996178
@    MULPOP   C       2.16; C   _1 -0.11; C   _2 -0.11; C   _1  0.58; C   _2  0.58; C       0.31; N       0.07; O   _1 -0.58; O   _2 -0.58; H   _1 -0.49; 
@             H   _2 -0.49; H   _1 -0.44; H   _2 -0.44; H      -0.45; 
 -----------------------------------------------------------------------------
   7  Screening settings (-IFTHRS, JTDIIS, DIFDEN, times)  -13    7    F  2.66D+01  2.66D+01
@  7  -433.775907215       2.26D-03  -1.04D-05    16  10   4   2
      Virial theorem: -V/T =      1.996162
@    MULPOP   C       2.16; C   _1 -0.12; C   _2 -0.12; C   _1  0.58; C   _2  0.58; C       0.31; N       0.06; O   _1 -0.58; O   _2 -0.58; H   _1 -0.49; 
@             H   _2 -0.49; H   _1 -0.44; H   _2 -0.44; H      -0.45; 
 -----------------------------------------------------------------------------
   8  Screening settings (-IFTHRS, JTDIIS, DIFDEN, times)  -13    8    T  2.64D+01  2.64D+01
@  8  -433.775907984       1.07D-03  -7.68D-07    16  10   4   2
      Virial theorem: -V/T =      1.996158
@    MULPOP   C       2.16; C   _1 -0.12; C   _2 -0.12; C   _1  0.58; C   _2  0.58; C       0.31; N       0.06; O   _1 -0.58; O   _2 -0.58; H   _1 -0.49; 
@             H   _2 -0.49; H   _1 -0.44; H   _2 -0.44; H      -0.45; 
 -----------------------------------------------------------------------------
   9  Screening settings (-IFTHRS, JTDIIS, DIFDEN, times)  -13    9    T  2.63D+01  2.64D+01
@  9  -433.775908146       3.68D-04  -1.62D-07    16  10   4   2
      Virial theorem: -V/T =      1.996160
@    MULPOP   C       2.16; C   _1 -0.12; C   _2 -0.12; C   _1  0.58; C   _2  0.58; C       0.31; N       0.06; O   _1 -0.58; O   _2 -0.58; H   _1 -0.49; 
@             H   _2 -0.49; H   _1 -0.44; H   _2 -0.44; H      -0.45; 
 -----------------------------------------------------------------------------
  10  Screening settings (-IFTHRS, JTDIIS, DIFDEN, times)  -13   10    T  2.63D+01  2.64D+01
@ 10  -433.775908192       1.46D-04  -4.61D-08    16  10   4   2
      Virial theorem: -V/T =      1.996160
@    MULPOP   C       2.16; C   _1 -0.11; C   _2 -0.11; C   _1  0.58; C   _2  0.58; C       0.31; N       0.06; O   _1 -0.58; O   _2 -0.58; H   _1 -0.49; 
@             H   _2 -0.49; H   _1 -0.44; H   _2 -0.44; H      -0.45; 
 -----------------------------------------------------------------------------
  11  Screening settings (-IFTHRS, JTDIIS, DIFDEN, times)  -13   11    T  2.63D+01  2.63D+01
@ 11  -433.775908201       5.87D-05  -9.00D-09    16  10   4   2
      Virial theorem: -V/T =      1.996160
@    MULPOP   C       2.16; C   _1 -0.11; C   _2 -0.11; C   _1  0.58; C   _2  0.58; C       0.31; N       0.06; O   _1 -0.58; O   _2 -0.58; H   _1 -0.49; 
@             H   _2 -0.49; H   _1 -0.44; H   _2 -0.44; H      -0.45; 
 -----------------------------------------------------------------------------
  12  Screening settings (-IFTHRS, JTDIIS, DIFDEN, times)  -13   12    T  2.62D+01  2.63D+01
@ 12  -433.775908202       2.45D-05  -1.07D-09    16  10   4   2
      Virial theorem: -V/T =      1.996160
@    MULPOP   C       2.16; C   _1 -0.11; C   _2 -0.11; C   _1  0.58; C   _2  0.58; C       0.31; N       0.06; O   _1 -0.58; O   _2 -0.58; H   _1 -0.49; 
@             H   _2 -0.49; H   _1 -0.44; H   _2 -0.44; H      -0.45; 
 -----------------------------------------------------------------------------
  13  Screening settings (-IFTHRS, JTDIIS, DIFDEN, times)  -13   13    T  2.63D+01  2.63D+01
@ 13  -433.775908202       6.28D-06  -1.28D-10    16  10   4   2
      Virial theorem: -V/T =      1.996160
@    MULPOP   C       2.16; C   _1 -0.11; C   _2 -0.11; C   _1  0.58; C   _2  0.58; C       0.31; N       0.06; O   _1 -0.58; O   _2 -0.58; H   _1 -0.49; 
@             H   _2 -0.49; H   _1 -0.44; H   _2 -0.44; H      -0.45; 
 -----------------------------------------------------------------------------
  14  Screening settings (-IFTHRS, JTDIIS, DIFDEN, times)  -13   14    T  2.61D+01  2.61D+01
@ 14  -433.775908202       2.52D-06  -9.09D-13    16  10   4   2
      Virial theorem: -V/T =      1.996160
@    MULPOP   C       2.16; C   _1 -0.11; C   _2 -0.11; C   _1  0.58; C   _2  0.58; C       0.31; N       0.06; O   _1 -0.58; O   _2 -0.58; H   _1 -0.49; 
@             H   _2 -0.49; H   _1 -0.44; H   _2 -0.44; H      -0.45; 
 -----------------------------------------------------------------------------
  15  Screening settings (-IFTHRS, JTDIIS, DIFDEN, times)  -13   15    T  2.60D+01  2.60D+01
@ 15  -433.775908202       8.99D-07  -1.48D-11    16  10   4   2

@ *** DIIS converged in  15 iterations !
@     Converged SCF energy, gradient:   -433.775908201786    8.99D-07
    - total time used in SIRFCK :              0.00 seconds

 --- Writing SIRIFC interface file

 CPU and wall time for SCF :     394.281     394.439


 ----- Output from SIRIUS MP2 module -----

 Reference: H.J.Aa.Jensen, P.Jorgensen, H.Agren, and J.Olsen,
            J. Chem. Phys. 88, 3834 (1988); 89, 5354 (1988)

 Checking that the closed shell orbitals are canonical Hartree-Fock orbitals

    Number of electrons  :   64
    Closed shell orbitals:   16   10    4    2

 Generating Fock matrix

 Hartree-Fock electronic energy:        -852.363325099045
 Hartree-Fock total      energy:        -433.775908201778

 Hartree-Fock orbital energies, symmetry 1 ( A1 ),   16 occupied SCF orbitals

       -20.68412321   -15.66193161   -11.35343330   -11.26445153   -11.25856421
       -11.24729832    -2.03713084    -1.22317272    -1.15780515    -1.04062827
        -0.88948661    -0.80269444    -0.75390084    -0.69179018    -0.63093580
        -0.53292150     0.03308155     0.04559549     0.06349476     0.10843588
         0.12396807     0.14122935     0.15424385     0.15739834     0.16990154
         0.18284690     0.20513617     0.24674966     0.26721636     0.28802606
         0.31988905     0.33330551     0.34366267     0.35902553     0.36378897
         0.39185413     0.40950453     0.42343758     0.45806429     0.47431189
         0.51082586     0.56993762     0.57563722     0.60979387     0.62784336
         0.66767089     0.67580149     0.68455326     0.72063413     0.76077141
         0.78934236     0.83848897     0.89973264     0.90255675     0.95930714
         0.98869812     1.01811331     1.06725321     1.07482001     1.08980925
         1.20875312     1.28996276     1.34060772     1.41698338     1.50032371
         1.53986909     1.55504735     1.59514462     1.60891405     1.63408876
         1.69835824     1.73535996     1.76830555     1.79125784     1.87280790
         1.95962517     1.99198297     2.03405418     2.03894935     2.20587918
         2.23684961     2.30248445     2.36248438     2.40955171     2.44008407
         2.52263540     2.56654312     2.69489519     2.75235078     2.83994766
         2.91488809     2.97723083     3.05505271     3.16433604     3.18179627
         3.31660768     3.54315709     3.88545023     4.07121468     4.17453347
        19.81883329    20.32471291    20.47039143    20.64000971    23.37015433
        23.43755682    23.48431142    23.80823499    23.90979691    24.12913566
        27.37093636    31.76386153    35.76333442    39.57682478    40.04612225

 Hartree-Fock orbital energies, symmetry 2 ( B1 ),   10 occupied SCF orbitals

       -20.68226507   -11.26442632   -11.25857780    -1.13904280    -1.03969240
        -0.85381874    -0.65562439    -0.61048282    -0.56447049    -0.51658522
         0.03893999     0.05744875     0.13329144     0.13739495     0.15235622
         0.16138446     0.18101093     0.20704216     0.25857144     0.29601974
         0.30486637     0.31759705     0.34896231     0.36434117     0.37836582
         0.39973215     0.41472062     0.43330632     0.51309596     0.55882806
         0.58081609     0.62965117     0.65624219     0.67952384     0.69779778
         0.74674049     0.77239525     0.81064670     0.83657095     0.85757718
         0.88993718     0.92271875     1.03391162     1.16876818     1.25089131
         1.31070409     1.35963670     1.39632480     1.46013805     1.50715421
         1.53138592     1.60383382     1.63512885     1.66039774     1.72210420
         1.76816185     1.78769859     1.82447301     1.87107384     1.93946886
         2.05565361     2.13858600     2.17526321     2.31856320     2.33376315
         2.38645577     2.45213549     2.54434605     2.68037501     2.73499539
         2.91016587     2.94508695     3.17032394     3.31913063     3.37140844
         3.43182597     4.01823265     4.47120188     4.81380602    20.29682390
        20.48028388    22.87709692    23.33110946    23.39494221    23.96278104
        24.13253301    24.31913727    31.33311083    36.00700588    40.01676293
        41.32856301

 Hartree-Fock orbital energies, symmetry 3 ( B2 ),    4 occupied SCF orbitals

        -0.93504831    -0.54467385    -0.43680133    -0.30617881     0.10387529
         0.11994515     0.13900175     0.18509520     0.19014218     0.23140937
         0.29884181     0.33992917     0.39090627     0.46837226     0.54706348
         0.59969203     0.67277319     0.71671433     0.79522885     0.87755798
         0.91505861     0.93112351     0.95761323     1.04800496     1.08998187
         1.15014969     1.18417682     1.47960361     1.52660175     1.62909544
         1.68258345     1.71716161     1.85286202     1.94433215     2.09727715
         2.12954947     2.18381329     2.31287102     2.56621480     2.69208115
         3.09392818     3.74955429    22.56529275    22.71363603    22.84250249
        23.04114556    30.76330842    39.43917814

 Hartree-Fock orbital energies, symmetry 4 ( A2 ),    2 occupied SCF orbitals

        -0.39102642    -0.35857212     0.09419470     0.13725660     0.19120036
         0.28433098     0.41890027     0.49523519     0.55161161     0.65969463
         0.74506998     0.88963415     0.90978538     0.94788078     1.04073468
         1.08162484     1.23029995     1.31627439     1.44725381     1.62209442
         1.69184778     1.70265227     1.85169293     1.88516322     2.11471827
         2.18921960     2.36128979     2.54382740     2.63088180     3.86357013
         4.33299069    22.70900245    22.87790796    39.46043892

    E(LUMO) :     0.03308155   (in symmetry 1)
  - E(HOMO) :    -0.30617881   (in symmetry 3)
  --------------------------
    gap     :     0.33926035

---> (Re)generating AOTWOINT


     ************************************************************************
     ************************** Output from HERINT **************************
     ************************************************************************


 Threshold for neglecting two-electron integrals:  1.00D-12
 HERMIT - Number of two-electron integrals written:   198383314 ( 22.9% )
 HERMIT - Megabytes written:                           3028.352

  Time used in TWOINT     is      36.47 seconds

 2-el. integral transformation level 5: Total CPU and WALL times (sec)     387.281     390.111

 MP2 move   0.897822 electrons to unoccupied HF orbitals


@   Hartree-Fock total energy   :          -433.7759082018
@   + MP2 contribution          :            -1.6600998521
@   = MP2 second order energy   :          -435.4360080539

 Natural orbital occupation numbers, symmetry 1 (irrep A1 )
 Sum =    31.99011643; RHF =    32.00000000; Difference =    -0.00988357

         1.99928309     1.99905890     1.99876113     1.99875776     1.99875209
         1.99874856     1.98975608     1.98421414     1.97980339     1.97441086
         1.96985596     1.96792633     1.96631656     1.96275294     1.95588149
         1.94899964     0.03794904     0.02565721     0.02424600     0.02213544
         0.01898152     0.01726067     0.01648950     0.01356558     0.01322151
         0.01228530     0.00997730     0.00890388     0.00835455     0.00768122
         0.00670678     0.00637348     0.00469757     0.00430233     0.00341666
         0.00299127     0.00288064     0.00257837     0.00236855     0.00205696
         0.00169516     0.00161154     0.00143634     0.00128412     0.00126164
         0.00117510     0.00106666     0.00095583     0.00073546     0.00065624
         0.00061776     0.00051030     0.00048647     0.00044566     0.00042684
         0.00041540     0.00039864     0.00037426     0.00035559     0.00035114
         0.00033506     0.00032496     0.00031432     0.00030402     0.00028093
         0.00026258     0.00023318     0.00022434     0.00022064     0.00019767
         0.00019375     0.00018346     0.00017702     0.00017263     0.00016753
         0.00016026     0.00015558     0.00014359     0.00013850     0.00013561
         0.00013257     0.00012223     0.00011787     0.00010500     0.00010112
         0.00009251     0.00007813     0.00006536     0.00005862     0.00005164
         0.00004495     0.00003618     0.00003342     0.00002529     0.00001710
         0.00001456     0.00001363     0.00001250     0.00001067     0.00000957
         0.00000828     0.00000743     0.00000657     0.00000358     0.00000226
         0.00000125     0.00000086     0.00000072     0.00000046     0.00000027
         0.00000016     0.00000007    -0.00000008    -0.00000073    -0.00000363

 Natural orbital occupation numbers, symmetry 2 (irrep B1 )
 Sum =    19.99608077; RHF =    20.00000000; Difference =    -0.00391923

         1.99927600     1.99875753     1.99874982     1.98174262     1.98000529
         1.97257895     1.96086845     1.95557413     1.95428207     1.94547030
         0.04522508     0.02508419     0.02387864     0.02132205     0.01700452
         0.01640262     0.01574011     0.01194383     0.00967282     0.00911764
         0.00818145     0.00561988     0.00532880     0.00353427     0.00320995
         0.00306187     0.00250471     0.00216964     0.00203113     0.00164251
         0.00161504     0.00140827     0.00133177     0.00125133     0.00103772
         0.00099401     0.00068187     0.00064291     0.00054399     0.00045705
         0.00042552     0.00041463     0.00036881     0.00033830     0.00032821
         0.00029954     0.00029242     0.00026712     0.00025278     0.00022160
         0.00020876     0.00019928     0.00018821     0.00018304     0.00018188
         0.00017191     0.00016754     0.00016280     0.00015098     0.00014197
         0.00013575     0.00013091     0.00012350     0.00011938     0.00010262
         0.00010165     0.00009286     0.00007984     0.00005261     0.00004583
         0.00003184     0.00003098     0.00002367     0.00001845     0.00001580
         0.00001379     0.00001212     0.00001158     0.00000941     0.00000892
         0.00000443     0.00000293     0.00000135     0.00000100     0.00000063
         0.00000036     0.00000027     0.00000012    -0.00000005    -0.00000070
        -0.00000118

 Natural orbital occupation numbers, symmetry 3 (irrep B2 )
 Sum =     7.99206168; RHF =     8.00000000; Difference =    -0.00793832

         1.97868670     1.95904523     1.94528340     1.90746257     0.07110714
         0.03170027     0.01486035     0.01407015     0.01078012     0.01000295
         0.00894339     0.00731614     0.00712159     0.00533384     0.00403558
         0.00333915     0.00236300     0.00162179     0.00146756     0.00091822
         0.00089470     0.00070491     0.00055457     0.00050372     0.00047988
         0.00045129     0.00039249     0.00034655     0.00030273     0.00024590
         0.00021398     0.00020178     0.00019221     0.00018239     0.00017267
         0.00013755     0.00012721     0.00011734     0.00009871     0.00009258
         0.00007555     0.00005551     0.00002669     0.00002355     0.00001190
         0.00000714     0.00000175    -0.00001270

 Natural orbital occupation numbers, symmetry 4 (irrep A2 )
 Sum =     4.02174111; RHF =     4.00000000; Difference =     0.02174111

         1.96892544     1.91271963     0.06950731     0.01703917     0.01100226
         0.00968580     0.00728451     0.00577332     0.00436314     0.00373641
         0.00272506     0.00161375     0.00146022     0.00096311     0.00079446
         0.00074270     0.00062949     0.00053718     0.00041611     0.00038140
         0.00031578     0.00023940     0.00019745     0.00018608     0.00014990
         0.00013325     0.00012447     0.00009924     0.00007466     0.00005032
         0.00002201     0.00001921     0.00000950    -0.00018064

 Time used for MP2 natural orbitals :     417.250 CPU seconds,     420.082 wall seconds.

 CPU and wall time for MP2 :     417.250     420.082


        SIRIUS MCSCF optimization (SIROPT)
 ================================================


 Fock matrix screening setting for SIRCNO: IFTHRS =    9


 ----- Output from SIRIUS CI module (CICTL) -----




 2-el. integral transformation level 0: Total CPU and WALL times (sec)      93.859      93.870


 --- SIRCI.CIST1: plus combination of all degenerate
                 configurations is used as start vectors.


 (CIST1) 8 lowest diagonal elements:

 Element no. Config.no.    Active energy      Total energy

         1 :          1    -15.3072189223   -433.7646566906
         2 :          2    -15.0147646996   -433.4722024680
         3 :          6    -15.0147646996   -433.4722024680
         4 :          3    -14.8359804250   -433.2934181934
         5 :         11    -14.8359804250   -433.2934181934
         6 :          7    -14.7076257128   -433.1650634811
         7 :         44    -14.6832755145   -433.1407132829
         8 :         45    -14.5790347696   -433.0364725380


 Convergence threshold for CI optimization :     0.00000500



 *** Reached maximum number of CI iterations:    3
              1 CI roots are not converged.


@ Final CI energies and residuals in symmetry 1 (irrep A1 )
@    1     -433.781766697035891       2.00D-03

   --- OUTPUT FROM SIRCNO     Keyword = FD+NO 


 Occupations of CAS natural orbitals:

 Symmetry  1 ( irrep A1  in C2v )

   1.998104818

 Symmetry  2 ( irrep B1  in C2v )

   0.002349666

 Symmetry  3 ( irrep B2  in C2v )

   1.997255654   1.988630144

 Symmetry  4 ( irrep A2  in C2v )

   1.999546909   1.972609414   0.041503394


 --- MACRO ITERATION  1 ---
 --------------------------

 2-el. integral transformation level 3: Total CPU and WALL times (sec)      96.938      96.952

 Fock matrix screening setting for this macro iteration: 10^( -9)

 Total MCSCF energy       :          -433.781766695762087  (MACRO    1)

 - Nuclear repulsion      :           418.587416897267303
 - Inactive energy        :          -837.044854662506850
 - Active energy          :           -15.324328930522521

 Norm of total gradient   :             0.419921680886
 -    of CI gradient      :             0.003992340912
 -    of orbital gradient :             0.419902702173
      Virial theorem: -V/T =      1.985991
@    MULPOP   C       2.06; C   _1  0.03; C   _2  0.03; C   _1  0.50; C   _2  0.50; C       0.40; N       0.78; O   _1 -0.90; O   _2 -0.90; H   _1 -0.54; 
@             H   _2 -0.54; H   _1 -0.47; H   _2 -0.47; H      -0.49; 

 (SIRNEO) iteration (  1,  5)
 Micro iteration termination criterion met, EVAL(ISTATE+1) = -1.64D-03

   --- OUTPUT FROM SIRCNO     Keyword = FD+NO 


 Occupations of CAS natural orbitals:

 Symmetry  1 ( irrep A1  in C2v )

   1.991303415

 Symmetry  2 ( irrep B1  in C2v )

   0.009136922

 Symmetry  3 ( irrep B2  in C2v )

   1.997108503   1.987724292

 Symmetry  4 ( irrep A2  in C2v )

   1.999562314   1.970796691   0.044367864


 --- MACRO ITERATION  2 ---
 --------------------------

 2-el. integral transformation level 3: Total CPU and WALL times (sec)      95.906      95.916

 Fock matrix screening setting for this macro iteration: 10^( -9)

 Total MCSCF energy       :          -433.793789779479994  (MACRO    2)

 - Nuclear repulsion      :           418.587416897267303
 - Inactive energy        :          -836.714329938975766
 - Active energy          :           -15.666876737771503

 Norm of total gradient   :             0.094571714092
 -    of CI gradient      :             0.084137135311
 -    of orbital gradient :             0.043182769340
      Virial theorem: -V/T =      1.990283
@    MULPOP   C       2.36; C   _1 -0.49; C   _2 -0.49; C   _1  0.72; C   _2  0.72; C       0.38; N       0.98; O   _1 -0.90; O   _2 -0.90; H   _1 -0.53; 
@             H   _2 -0.53; H   _1 -0.43; H   _2 -0.43; H      -0.45; 

 (SIRNEO) iteration (  2,  3)
 Micro iteration termination criterion met, EVAL(ISTATE+1) = -6.12D-03

   --- OUTPUT FROM SIRCNO     Keyword = FD+NO 


 Occupations of CAS natural orbitals:

 Symmetry  1 ( irrep A1  in C2v )

   1.994807268

 Symmetry  2 ( irrep B1  in C2v )

   0.005449221

 Symmetry  3 ( irrep B2  in C2v )

   1.997633801   1.989246383

 Symmetry  4 ( irrep A2  in C2v )

   1.999746017   1.973915677   0.039201634


 --- MACRO ITERATION  3 ---
 --------------------------

 2-el. integral transformation level 3: Total CPU and WALL times (sec)      96.688      96.719

 Fock matrix screening setting for this macro iteration: 10^( -9)

 Total MCSCF energy       :          -433.798384346379294  (MACRO    3)

 - Nuclear repulsion      :           418.587416897267303
 - Inactive energy        :          -836.527767432735800
 - Active energy          :           -15.858033810910776

 Norm of total gradient   :             0.089311580016
 -    of CI gradient      :             0.056708989509
 -    of orbital gradient :             0.068997455271
      Virial theorem: -V/T =      1.984669
@    MULPOP   C       2.38; C   _1 -0.32; C   _2 -0.32; C   _1  0.66; C   _2  0.66; C       0.33; N       1.35; O   _1 -1.20; O   _2 -1.20; H   _1 -0.51; 
@             H   _2 -0.51; H   _1 -0.45; H   _2 -0.45; H      -0.44; 

 Residual norm when dim(red L) =   8
 NEO root     CSF        orbital          total
    1     0.00835196     0.00447689     0.00947617 converged

 (NEONEX) NEO vector is converged.

   --- OUTPUT FROM SIRCNO     Keyword = FD+NO 


 Occupations of CAS natural orbitals:

 Symmetry  1 ( irrep A1  in C2v )

   1.984793820

 Symmetry  2 ( irrep B1  in C2v )

   0.016036279

 Symmetry  3 ( irrep B2  in C2v )

   1.997904771   1.987114688

 Symmetry  4 ( irrep A2  in C2v )

   1.999170285   1.968493098   0.046487058


 --- MACRO ITERATION  4 ---
 --------------------------

 2-el. integral transformation level 3: Total CPU and WALL times (sec)      95.453      95.557

 Fock matrix screening setting for this macro iteration: 10^( -9)

 Total MCSCF energy       :          -433.805273249152151  (MACRO    4)

 - Nuclear repulsion      :           418.587416897267303
 - Inactive energy        :          -835.859074491453384
 - Active energy          :           -16.533615654966088

 Norm of total gradient   :             0.110163940530
 -    of CI gradient      :             0.107882732663
 -    of orbital gradient :             0.022302685628
      Virial theorem: -V/T =      1.976829
@    MULPOP   C       2.26; C   _1 -0.12; C   _2 -0.12; C   _1  0.58; C   _2  0.58; C       0.32; N       1.56; O   _1 -1.37; O   _2 -1.37; H   _1 -0.49; 
@             H   _2 -0.49; H   _1 -0.44; H   _2 -0.44; H      -0.45; 

 Residual norm when dim(red L) =   7
 NEO root     CSF        orbital          total
    1     0.01134189     0.00409770     0.01205942 converged

 (NEONEX) NEO vector is converged.

   --- OUTPUT FROM SIRCNO     Keyword = FD+NO 


 Occupations of CAS natural orbitals:

 Symmetry  1 ( irrep A1  in C2v )

   1.990142964

 Symmetry  2 ( irrep B1  in C2v )

   0.010265615

 Symmetry  3 ( irrep B2  in C2v )

   1.997562731   1.987829722

 Symmetry  4 ( irrep A2  in C2v )

   1.999591954   1.970619756   0.043987259


 --- MACRO ITERATION  5 ---
 --------------------------

 2-el. integral transformation level 3: Total CPU and WALL times (sec)      95.984      96.018

 Fock matrix screening setting for this macro iteration: 10^( -9)

 Total MCSCF energy       :          -433.808266772737170  (MACRO    5)

 - Nuclear repulsion      :           418.587416897267303
 - Inactive energy        :          -835.433938600102010
 - Active energy          :           -16.961745069902491

 Norm of total gradient   :             0.020238894757
 -    of CI gradient      :             0.017911991908
 -    of orbital gradient :             0.009421964067
      Virial theorem: -V/T =      1.972847
@    MULPOP   C       2.27; C   _1 -0.13; C   _2 -0.13; C   _1  0.58; C   _2  0.58; C       0.32; N       1.68; O   _1 -1.42; O   _2 -1.42; H   _1 -0.49; 
@             H   _2 -0.49; H   _1 -0.44; H   _2 -0.44; H      -0.45; 

 Residual norm when dim(red L) =  11
 NEO root     CSF        orbital          total
    1     0.00020930     0.00013547     0.00024932 converged

 (NEONEX) NEO vector is converged.

   --- OUTPUT FROM SIRCNO     Keyword = FD+NO 


 Occupations of CAS natural orbitals:

 Symmetry  1 ( irrep A1  in C2v )

   1.990561881

 Symmetry  2 ( irrep B1  in C2v )

   0.009914541

 Symmetry  3 ( irrep B2  in C2v )

   1.997601542   1.987174557

 Symmetry  4 ( irrep A2  in C2v )

   1.999523340   1.969179060   0.046045079


 --- MACRO ITERATION  6 ---
 --------------------------

 2-el. integral transformation level 3: Total CPU and WALL times (sec)      95.312      95.375

 Fock matrix screening setting for this macro iteration: 10^( -9)

 Total MCSCF energy       :          -433.808342678289762  (MACRO    6)

 - Nuclear repulsion      :           418.587416897267303
 - Inactive energy        :          -835.429250683129112
 - Active energy          :           -16.966508892427942

 Norm of total gradient   :             0.000712248043
 -    of CI gradient      :             0.000690733865
 -    of orbital gradient :             0.000173735438
      Virial theorem: -V/T =      1.972695
@    MULPOP   C       2.28; C   _1 -0.13; C   _2 -0.13; C   _1  0.58; C   _2  0.58; C       0.32; N       1.67; O   _1 -1.42; O   _2 -1.42; H   _1 -0.49; 
@             H   _2 -0.49; H   _1 -0.44; H   _2 -0.44; H      -0.45; 

 Residual norm when dim(red L) =  16
 NEO root     CSF        orbital          total
    1     0.00000312     0.00000365     0.00000480 converged

 (NEONEX) NEO vector is converged.

   --- OUTPUT FROM SIRCNO     Keyword = FD+NO 


 Occupations of CAS natural orbitals:

 Symmetry  1 ( irrep A1  in C2v )

   1.990587623

 Symmetry  2 ( irrep B1  in C2v )

   0.009886609

 Symmetry  3 ( irrep B2  in C2v )

   1.997615708   1.987166198

 Symmetry  4 ( irrep A2  in C2v )

   1.999525531   1.969173322   0.046045009


 --- MACRO ITERATION  7 ---
 --------------------------

 2-el. integral transformation level 3: Total CPU and WALL times (sec)      96.031      96.099

 Fock matrix screening setting for this macro iteration: 10^( -9)

 Total MCSCF energy       :          -433.808342751228736  (MACRO    7)

 - Nuclear repulsion      :           418.587416897267303
 - Inactive energy        :          -835.429207069946642
 - Active energy          :           -16.966552578549415

 Norm of total gradient   :             0.000004899115
 -    of CI gradient      :             0.000003250591
 -    of orbital gradient :             0.000003665376
      Virial theorem: -V/T =      1.972691
@    MULPOP   C       2.28; C   _1 -0.13; C   _2 -0.13; C   _1  0.58; C   _2  0.58; C       0.32; N       1.67; O   _1 -1.42; O   _2 -1.42; H   _1 -0.49; 
@             H   _2 -0.49; H   _1 -0.44; H   _2 -0.44; H      -0.45; 

 *** Optimization control: MCSCF converged ***
     Number of macro iterations used            7
     Number of micro iterations used           42
     Total number of CPU seconds used      2387.14

 CPU and wall time for MCSCF :    2387.141    2387.803


                     .----------------------------------------.
                     | --- SIRIUS OPTIMIZATION STATISTICS --- |
                     `----------------------------------------'


 
     Date and time (Linux)  : Sat Jan 11 00:56:15 2020
     Host name              : Lab2-333-NPs                            


  ITER ITMIC     EMCSCF           GRDNRM        RATIO      STPLNG
 ---------------------------------------------------------------------
    1    5   -433.781766695762   0.4199216809  0.000000   0.7350264075
    2    3   -433.793789779480   0.0945717141  0.766549   0.7372679815
    3    6   -433.798384346379   0.0893115800  0.894406   0.7128664565
    4    5   -433.805273249152   0.1101639405  0.527755   0.4331672996
    5    9   -433.808266772737   0.0202388948  0.974731   0.0375402227
    6   14   -433.808342678290   0.0007122480  1.011560   0.0009354671
    7    0   -433.808342751229   0.0000048991  1.000347   0.0000000000


  ITER  INDGCM  GCIMAX      GCINRM     INDGOM  GOBMAX      GOBNRM      GRDNRM
 ------------------------------------------------------------------------------
    1     25    0.001949    0.003992   2644    0.059838    0.419903    0.419922
    2     26   -0.080076    0.084137   1512   -0.007190    0.043183    0.094572
    3     26   -0.041939    0.056709   1608   -0.011562    0.068997    0.089312
    4     26   -0.103772    0.107883   1603    0.006967    0.022303    0.110164
    5     26   -0.011712    0.017912   1583   -0.003898    0.009422    0.020239
    6     26   -0.000612    0.000691   2476   -0.000048    0.000174    0.000712
    7     26   -0.000001    0.000003   2589   -0.000001    0.000004    0.000005


  ITER ITMIC NCLIN NOLIN   TIMMAC    TIMITR    TIMMIC    TIMLIN    TIMMIC/ITMIC
 ------------------------------------------------------------------------------

    1     5     1     4    297.36     96.94    171.30    142.67     34.26
    2     3     1     3    242.55     95.91    118.08     89.55     39.36
    3     6     3     4    325.59     96.69    200.30    171.70     33.38
    4     5     2     4    297.27     95.45    173.17    144.59     34.63
    5     9     4     6    408.41     95.98    283.83    255.23     31.54
    6    14     8     7    542.58     95.31    418.70    390.11     29.91
    7     0     0     0    124.62     96.03      0.00      0.00


 ITER         EMY                 EACTIV              EMCSCF

    1   -837.044854662507    -15.324328930523   -433.781766695762
    2   -836.714329938976    -15.666876737772   -433.793789779480
    3   -836.527767432736    -15.858033810911   -433.798384346379
    4   -835.859074491453    -16.533615654966   -433.805273249152
    5   -835.433938600102    -16.961745069902   -433.808266772737
    6   -835.429250683129    -16.966508892428   -433.808342678290
    7   -835.429207069947    -16.966552578549   -433.808342751229


 ITER         DEPRED              DEACT               RATIO

    1      0.000000000000      0.000000000000      0.000000000000
    2     -0.015684686986     -0.012023083718      0.766549165340
    3     -0.005137004171     -0.004594566899      0.894405911833
    4     -0.013053226217     -0.006888902773      0.527754798552
    5     -0.003071128967     -0.002993523585      0.974730666527
    6     -0.000075038088     -0.000075905553      1.011560317031
    7     -0.000000072914     -0.000000072939      1.000346805773


 ITER    BETA           GAMMA             STPLNG              RTRUST

    1      0.62835636  1.00000000      0.735026407532      0.700000000000
    2      1.94880016  1.00000000      0.737267981517      0.700000000000
    3      1.74376432  1.00000000      0.712866456482      0.700000000000
    4      0.20000000  1.00000000      0.433167299558      0.700000000000
    5      0.20000000  1.00000000      0.037540222731      0.700000000000
    6      0.20000000  1.00000000      0.000935467093      0.700000000000
    7      0.00000000  0.00000000      0.000000000000      0.700000000000


 Reduced L root no.  1
 ITER         EVAL              EVEC(1)           EVEC(2)           EVEC(3)
 ----------------------------------------------------------------------------
    1   -0.010208100258    0.907848797407   -0.412564833761   -0.020188449547
    2   -0.012733118870   -0.571255155501    0.020289480984    0.301541259583
    3   -0.031188689583   -0.626811342692    0.040219594677    0.754364099069
    4   -0.000243860061    0.996268314445   -0.003566952584   -0.071518110068
    5   -0.000006002709    0.999971815825   -0.000959347803   -0.006759972418
    6   -0.000000005833    0.999999982498   -0.000028504917   -0.000136352584
    7    0.000000000000    0.000000000000    0.000000000000    0.000000000000


                       .-----------------------------------.
                       | --- Final results from SIRIUS --- |
                       `-----------------------------------'


@    Spin multiplicity:           1
@    Spatial symmetry:            1 ( irrep  A1  in C2v )
@    Total charge of molecule:    0
@    State number:                1

@    Final MCSCF energy:         -433.808342751229                 
@    Nuclear repulsion:           418.587416897267
@    Electronic energy:          -852.395759648496

@    Final gradient norm:           0.000004899115

 
     Date and time (Linux)  : Sat Jan 11 00:56:15 2020
     Host name              : Lab2-333-NPs                            

 Occupancies of natural orbitals
 -------------------------------

 Symmetry 1  ( A1 ) -- Total occupation in this symmetry is  31.990587623

   2.000000000   2.000000000   2.000000000   2.000000000   2.000000000
   2.000000000   2.000000000   2.000000000   2.000000000   2.000000000
   2.000000000   2.000000000   2.000000000   2.000000000   2.000000000
   1.990587623

 Symmetry 2  ( B1 ) -- Total occupation in this symmetry is  20.009886609

   2.000000000   2.000000000   2.000000000   2.000000000   2.000000000
   2.000000000   2.000000000   2.000000000   2.000000000   2.000000000
   0.009886609

 Symmetry 3  ( B2 ) -- Total occupation in this symmetry is   7.984781906

   2.000000000   2.000000000   1.997615708   1.987166198

 Symmetry 4  ( A2 ) -- Total occupation in this symmetry is   4.014743862

   1.999525531   1.969173322   0.046045009

File label for MO orbitals:  11Jan20   (CNOORB)

 (Only coefficients > 0.0100 are printed.)

 Molecular orbitals for symmetry species 1  (A1 )
 ------------------------------------------------

[...]


 Perturbation symmetry.     KSYMOP:       4
 Perturbation spin symmetry.TRPLET:       F
 Orbital variables.         KZWOPT:    1664
 Configuration variables.   KZCONF:     110
 Total number of variables. KZVAR :    1774


 CRLRV2 -- linear response calc for sym:  4
 CRLRV2 -- operator label1: XDIPLEN 
 CRLRV2 -- operator label2: YDIPLEN 
 CRLRV2 -- freqr1 :   5.840000D-02
 CRLRV2 -- freqr2 :  -5.840000D-02



 ---  SOLVING SETS OF LINEAR EQUATIONS FOR LINEAR RESPONSE PROPERTIES ---

 Operator symmetry = 4  ( A2 ); triplet =   F


 ** RSPCTL MICROITERATION NUMBER    1

       No.  Residual tot.,    conf., and orb.    Bnorm      Frequency 
      ----------------------------------------------------------------
         1    6.77723D+00  4.76D-01  6.76D+00  5.86D+01    0.00000D+00

 ** RSPCTL MICROITERATION NUMBER    2

       No.  Residual tot.,    conf., and orb.    Bnorm      Frequency 
      ----------------------------------------------------------------
         1    1.96982D+00  5.71D-01  1.89D+00  6.34D+01    0.00000D+00

 ** RSPCTL MICROITERATION NUMBER    3

       No.  Residual tot.,    conf., and orb.    Bnorm      Frequency 
      ----------------------------------------------------------------
         1    8.15992D-01  5.97D-01  5.56D-01  6.48D+01    0.00000D+00

 ** RSPCTL MICROITERATION NUMBER    4

       No.  Residual tot.,    conf., and orb.    Bnorm      Frequency 
      ----------------------------------------------------------------
         1    5.76484D-01  9.05D-02  5.69D-01  6.49D+01    0.00000D+00

 ** RSPCTL MICROITERATION NUMBER    5

       No.  Residual tot.,    conf., and orb.    Bnorm      Frequency 
      ----------------------------------------------------------------
         1    3.68802D-01  1.33D-01  3.44D-01  6.75D+01    0.00000D+00

 ** RSPCTL MICROITERATION NUMBER    6

       No.  Residual tot.,    conf., and orb.    Bnorm      Frequency 
      ----------------------------------------------------------------
         1    5.87245D-01  2.12D-01  5.48D-01  8.02D+01    0.00000D+00

 ** RSPCTL MICROITERATION NUMBER    7

       No.  Residual tot.,    conf., and orb.    Bnorm      Frequency 
      ----------------------------------------------------------------
         1    7.45013D-01  3.02D-01  6.81D-01  1.43D+02    0.00000D+00

 ** RSPCTL MICROITERATION NUMBER    8

       No.  Residual tot.,    conf., and orb.    Bnorm      Frequency 
      ----------------------------------------------------------------
         1    5.78302D-01  3.66D-01  4.48D-01  1.95D+02    0.00000D+00

 ** RSPCTL MICROITERATION NUMBER    9

       No.  Residual tot.,    conf., and orb.    Bnorm      Frequency 
      ----------------------------------------------------------------
         1    4.69435D-01  4.06D-01  2.35D-01  2.12D+02    0.00000D+00

 ** RSPCTL MICROITERATION NUMBER   10

       No.  Residual tot.,    conf., and orb.    Bnorm      Frequency 
      ----------------------------------------------------------------
         1    3.05593D-01  8.61D-02  2.93D-01  2.21D+02    0.00000D+00

 ** RSPCTL MICROITERATION NUMBER   11

       No.  Residual tot.,    conf., and orb.    Bnorm      Frequency 
      ----------------------------------------------------------------
         1    1.40210D-01  8.37D-02  1.12D-01  2.27D+02    0.00000D+00

 *** THE REQUESTED    1 SOLUTION VECTORS CONVERGED

 Convergence of RSP solution vectors, threshold = 1.00D-03
 ---------------------------------------------------------------
 (dimension of paired reduced space:   24)
 RSP solution vector no.    1; norm of residual   6.17D-04

 *** RSPCTL MICROITERATIONS CONVERGED
    XDIPLEN     YDIPLEN      freq1     freq2                Norm
 ---------------------------------------------------------------
                          0.058400 -0.058400        227.32133505


 Perturbation symmetry.     KSYMOP:       1
 Perturbation spin symmetry.TRPLET:       F
 Orbital variables.         KZWOPT:    2762
 Configuration variables.   KZCONF:     115
 Total number of variables. KZVAR :    2877


 CRLRV2 -- linear response calc for sym:  1
 CRLRV2 -- operator label1: YDIPLEN 
 CRLRV2 -- operator label2: YDIPLEN 
 CRLRV2 -- freqr1 :   5.840000D-02
 CRLRV2 -- freqr2 :   5.840000D-02



 ---  SOLVING SETS OF LINEAR EQUATIONS FOR LINEAR RESPONSE PROPERTIES ---

 Operator symmetry = 1  ( A1 ); triplet =   F


 ** RSPCTL MICROITERATION NUMBER    1

       No.  Residual tot.,    conf., and orb.    Bnorm      Frequency 
      ----------------------------------------------------------------
         1    1.75271D+01  1.17D+00  1.75D+01  9.65D+01    1.16800D-01

 ** RSPCTL MICROITERATION NUMBER    2

       No.  Residual tot.,    conf., and orb.    Bnorm      Frequency 
      ----------------------------------------------------------------
         1    7.39861D+00  9.20D-01  7.34D+00  1.03D+02    1.16800D-01

 ** RSPCTL MICROITERATION NUMBER    3

       No.  Residual tot.,    conf., and orb.    Bnorm      Frequency 
      ----------------------------------------------------------------
         1    2.79087D+00  1.10D+00  2.56D+00  1.05D+02    1.16800D-01

 ** RSPCTL MICROITERATION NUMBER    4

       No.  Residual tot.,    conf., and orb.    Bnorm      Frequency 
      ----------------------------------------------------------------
         1    1.71303D+00  1.17D+00  1.25D+00  1.05D+02    1.16800D-01

 ** RSPCTL MICROITERATION NUMBER    5

       No.  Residual tot.,    conf., and orb.    Bnorm      Frequency 
      ----------------------------------------------------------------
         1    1.41429D+00  1.22D+00  7.08D-01  1.05D+02    1.16800D-01

 ** RSPCTL MICROITERATION NUMBER    6

       No.  Residual tot.,    conf., and orb.    Bnorm      Frequency 
      ----------------------------------------------------------------
         1    1.41946D+00  2.96D-01  1.39D+00  1.05D+02    1.16800D-01

 ** RSPCTL MICROITERATION NUMBER    7

       No.  Residual tot.,    conf., and orb.    Bnorm      Frequency 
      ----------------------------------------------------------------
         1    6.67458D-01  3.00D-01  5.96D-01  1.05D+02    1.16800D-01

 ** RSPCTL MICROITERATION NUMBER    8

       No.  Residual tot.,    conf., and orb.    Bnorm      Frequency 
      ----------------------------------------------------------------
         1    3.66356D-01  3.07D-01  2.00D-01  1.05D+02    1.16800D-01

 ** RSPCTL MICROITERATION NUMBER    9

       No.  Residual tot.,    conf., and orb.    Bnorm      Frequency 
      ----------------------------------------------------------------
         1    2.43284D-01  9.63D-02  2.23D-01  1.05D+02    1.16800D-01

 ** RSPCTL MICROITERATION NUMBER   10

       No.  Residual tot.,    conf., and orb.    Bnorm      Frequency 
      ----------------------------------------------------------------
         1    1.39758D-01  9.84D-02  9.93D-02  1.05D+02    1.16800D-01

 ** RSPCTL MICROITERATION NUMBER   11

       No.  Residual tot.,    conf., and orb.    Bnorm      Frequency 
      ----------------------------------------------------------------
         1    1.02239D-01  9.70D-02  3.24D-02  1.05D+02    1.16800D-01

 *** THE REQUESTED    1 SOLUTION VECTORS CONVERGED

 Convergence of RSP solution vectors, threshold = 1.00D-03
 ---------------------------------------------------------------
 (dimension of paired reduced space:   24)
 RSP solution vector no.    1; norm of residual   9.74D-04

 *** RSPCTL MICROITERATIONS CONVERGED
    YDIPLEN     YDIPLEN      freq1     freq2                Norm
 ---------------------------------------------------------------
                          0.058400  0.058400        105.01797620
  Time used in CRVEC2     is       2 hours  3 minutes 26 seconds


 ----- CALCULATING CONTRIBUTIONS TO SECOND HYPERPOLARIZABILITY -----


   Contribution                Term         Accumulated
 ------------------------------------------------------
 Na T[4] Nb Nc Nd    -8018.80245473      -8018.80245473
 Na T[3] Nx Nyz       9976.67984885       1957.87739411
 Na X[3] Ny Nz       18863.87967337      20821.75706749
 Nx A[3] Ny Nz        6287.95989112      27109.71695861
 Na X[2] Nyz        -30268.29484034      -3158.57788173
 Nx A[2] Nyz        -30063.23353095     -33221.81141268

@ Cubic response function value in a.u. for
@ A operator, symmetry, frequency:   ZDIPLEN    1 -0.058400
@ B operator, symmetry, frequency:   ZDIPLEN    1  0.058400
@ C operator, symmetry, frequency:   ZDIPLEN    1 -0.058400
@ D operator, symmetry, frequency:   ZDIPLEN    1  0.058400

@ << A; B, C, D >>  =      -33221.81141268


 WARNING: Solution vector on RSPVEC converged to  9.24D-03
 WARNING: which is less than desired convergence  1.00D-03

 @WARNING---- Response labels XDIPLEN  ZDIPLEN  with frequencies   0.05840 -0.05840
 and symmetries    2   1 not converged on file RSPVEC


   Contribution                Term         Accumulated
 ------------------------------------------------------
 Na T[4] Nb Nc Nd     -827.19070020       -827.19070020
 Na T[3] Nx Nyz       4074.77722611       3247.58652591
 Na X[3] Ny Nz        4025.60674918       7273.19327510
 Nx A[3] Ny Nz         332.65992840       7605.85320350
 Na X[2] Nyz        -25876.59532064     -18270.74211714
 Nx A[2] Nyz         16389.74457679      -1880.99754035

@ Cubic response function value in a.u. for
@ A operator, symmetry, frequency:   XDIPLEN    2 -0.058400
@ B operator, symmetry, frequency:   XDIPLEN    2  0.058400
@ C operator, symmetry, frequency:   ZDIPLEN    1 -0.058400
@ D operator, symmetry, frequency:   ZDIPLEN    1  0.058400

@ << A; B, C, D >>  =       -1880.99754035



   Contribution                Term         Accumulated
 ------------------------------------------------------
 Na T[4] Nb Nc Nd     -472.00351333       -472.00351333
 Na T[3] Nx Nyz       1078.12173293        606.11821960
 Na X[3] Ny Nz         799.87041453       1405.98863413
 Nx A[3] Ny Nz         285.42081066       1691.40944479
 Na X[2] Nyz         -3766.69576368      -2075.28631889
 Nx A[2] Nyz         -5272.69310511      -7347.97942399

@ Cubic response function value in a.u. for
@ A operator, symmetry, frequency:   YDIPLEN    3 -0.058400
@ B operator, symmetry, frequency:   YDIPLEN    3  0.058400
@ C operator, symmetry, frequency:   ZDIPLEN    1 -0.058400
@ D operator, symmetry, frequency:   ZDIPLEN    1  0.058400

@ << A; B, C, D >>  =       -7347.97942399


 WARNING: Solution vector on RSPVEC converged to  9.31D-03
 WARNING: which is less than desired convergence  1.00D-03

 @WARNING---- Response labels ZDIPLEN  XDIPLEN  with frequencies   0.05840 -0.05840
 and symmetries    1   2 not converged on file RSPVEC

 WARNING: Solution vector on RSPVEC converged to  9.31D-03
 WARNING: which is less than desired convergence  1.00D-03

 @WARNING---- Response labels XDIPLEN  ZDIPLEN  with frequencies  -0.05840  0.05840
 and symmetries    2   1 not converged on file RSPVEC


   Contribution                Term         Accumulated
 ------------------------------------------------------
 Na T[4] Nb Nc Nd     -628.73934423       -628.73934423
 Na T[3] Nx Nyz       3917.77954921       3289.04020499
 Na X[3] Ny Nz        3480.95166974       6769.99187473
 Nx A[3] Ny Nz         -11.67732743       6758.31454730
 Na X[2] Nyz        -27493.57060003     -20735.25605273
 Nx A[2] Nyz         19364.04908457      -1371.20696816

@ Cubic response function value in a.u. for
@ A operator, symmetry, frequency:   XDIPLEN    2 -0.058400
@ B operator, symmetry, frequency:   ZDIPLEN    1  0.058400
@ C operator, symmetry, frequency:   XDIPLEN    2 -0.058400
@ D operator, symmetry, frequency:   ZDIPLEN    1  0.058400

@ << A; B, C, D >>  =       -1371.20696816



   Contribution                Term         Accumulated
 ------------------------------------------------------
 Na T[4] Nb Nc Nd     -414.98337729       -414.98337729
 Na T[3] Nx Nyz       1132.44078469        717.45740740
 Na X[3] Ny Nz         709.80285963       1427.26026703
 Nx A[3] Ny Nz         222.88029223       1650.14055926
 Na X[2] Nyz         -3778.11693192      -2127.97637266
 Nx A[2] Nyz         -5124.45852430      -7252.43489696

@ Cubic response function value in a.u. for
@ A operator, symmetry, frequency:   YDIPLEN    3 -0.058400
@ B operator, symmetry, frequency:   ZDIPLEN    1  0.058400
@ C operator, symmetry, frequency:   YDIPLEN    3 -0.058400
@ D operator, symmetry, frequency:   ZDIPLEN    1  0.058400

@ << A; B, C, D >>  =       -7252.43489696


 WARNING: Solution vector on RSPVEC converged to  9.24D-03
 WARNING: which is less than desired convergence  1.00D-03

 @WARNING---- Response labels XDIPLEN  ZDIPLEN  with frequencies   0.05840 -0.05840
 and symmetries    2   1 not converged on file RSPVEC

 WARNING: Solution vector on RSPVEC converged to  9.24D-03
 WARNING: which is less than desired convergence  1.00D-03

 @WARNING---- Response labels ZDIPLEN  XDIPLEN  with frequencies  -0.05840  0.05840
 and symmetries    1   2 not converged on file RSPVEC


   Contribution                Term         Accumulated
 ------------------------------------------------------
 Na T[4] Nb Nc Nd     -305.78060786       -305.78060786
 Na T[3] Nx Nyz      -9315.59791704      -9621.37852490
 Na X[3] Ny Nz        2973.53917021      -6647.83935469
 Nx A[3] Ny Nz        2163.17427408      -4484.66508061
 Na X[2] Nyz         26636.36965642      22151.70457581
 Nx A[2] Nyz        -23514.54560529      -1362.84102948

@ Cubic response function value in a.u. for
@ A operator, symmetry, frequency:   ZDIPLEN    1 -0.058400
@ B operator, symmetry, frequency:   XDIPLEN    2  0.058400
@ C operator, symmetry, frequency:   ZDIPLEN    1 -0.058400
@ D operator, symmetry, frequency:   XDIPLEN    2  0.058400

@ << A; B, C, D >>  =       -1362.84102948



   Contribution                Term         Accumulated
 ------------------------------------------------------
 Na T[4] Nb Nc Nd    -2638.59474288      -2638.59474288
 Na T[3] Nx Nyz      -3895.59495273      -6534.18969560
 Na X[3] Ny Nz       13177.80253478       6643.61283918
 Nx A[3] Ny Nz        4392.60084493      11036.21368410
 Na X[2] Nyz         -9337.11496567       1699.09871843
 Nx A[2] Nyz        -11407.29702653      -9708.19830810

@ Cubic response function value in a.u. for
@ A operator, symmetry, frequency:   XDIPLEN    2 -0.058400
@ B operator, symmetry, frequency:   XDIPLEN    2  0.058400
@ C operator, symmetry, frequency:   XDIPLEN    2 -0.058400
@ D operator, symmetry, frequency:   XDIPLEN    2  0.058400

@ << A; B, C, D >>  =       -9708.19830810



   Contribution                Term         Accumulated
 ------------------------------------------------------
 Na T[4] Nb Nc Nd     -239.50938433       -239.50938433
 Na T[3] Nx Nyz        909.65476868        670.14538435
 Na X[3] Ny Nz         417.82595300       1087.97133735
 Nx A[3] Ny Nz          91.35663105       1179.32796841
 Na X[2] Nyz         -3218.99540567      -2039.66743726
 Nx A[2] Nyz         -4018.49274745      -6058.16018471

@ Cubic response function value in a.u. for
@ A operator, symmetry, frequency:   YDIPLEN    3 -0.058400
@ B operator, symmetry, frequency:   YDIPLEN    3  0.058400
@ C operator, symmetry, frequency:   XDIPLEN    2 -0.058400
@ D operator, symmetry, frequency:   XDIPLEN    2  0.058400

@ << A; B, C, D >>  =       -6058.16018471



   Contribution                Term         Accumulated
 ------------------------------------------------------
 Na T[4] Nb Nc Nd     -218.02880076       -218.02880076
 Na T[3] Nx Nyz        976.03658922        758.00778846
 Na X[3] Ny Nz         367.93152971       1125.93931817
 Nx A[3] Ny Nz          60.06411196       1186.00343013
 Na X[2] Nyz         -3177.68005028      -1991.67662015
 Nx A[2] Nyz         -3886.20476158      -5877.88138172

@ Cubic response function value in a.u. for
@ A operator, symmetry, frequency:   YDIPLEN    3 -0.058400
@ B operator, symmetry, frequency:   XDIPLEN    2  0.058400
@ C operator, symmetry, frequency:   YDIPLEN    3 -0.058400
@ D operator, symmetry, frequency:   XDIPLEN    2  0.058400

@ << A; B, C, D >>  =       -5877.88138172



   Contribution                Term         Accumulated
 ------------------------------------------------------
 Na T[4] Nb Nc Nd     -380.57087634       -380.57087634
 Na T[3] Nx Nyz       1137.10123620        756.53035986
 Na X[3] Ny Nz         635.56278369       1392.09314354
 Nx A[3] Ny Nz         225.57492221       1617.66806575
 Na X[2] Nyz         -5039.86508380      -3422.19701805
 Nx A[2] Nyz         -3829.35695059      -7251.55396864

@ Cubic response function value in a.u. for
@ A operator, symmetry, frequency:   ZDIPLEN    1 -0.058400
@ B operator, symmetry, frequency:   YDIPLEN    3  0.058400
@ C operator, symmetry, frequency:   ZDIPLEN    1 -0.058400
@ D operator, symmetry, frequency:   YDIPLEN    3  0.058400

@ << A; B, C, D >>  =       -7251.55396864



   Contribution                Term         Accumulated
 ------------------------------------------------------
 Na T[4] Nb Nc Nd     -181.91334775       -181.91334775
 Na T[3] Nx Nyz        754.15995942        572.24661168
 Na X[3] Ny Nz         212.01598759        784.26259927
 Nx A[3] Ny Nz         133.25172714        917.51432640
 Na X[2] Nyz         -3672.73954337      -2755.22521697
 Nx A[2] Nyz         -3120.90301576      -5876.12823272

@ Cubic response function value in a.u. for
@ A operator, symmetry, frequency:   XDIPLEN    2 -0.058400
@ B operator, symmetry, frequency:   YDIPLEN    3  0.058400
@ C operator, symmetry, frequency:   XDIPLEN    2 -0.058400
@ D operator, symmetry, frequency:   YDIPLEN    3  0.058400

@ << A; B, C, D >>  =       -5876.12823272



   Contribution                Term         Accumulated
 ------------------------------------------------------
 Na T[4] Nb Nc Nd     -467.51800994       -467.51800994
 Na T[3] Nx Nyz       2602.59262011       2135.07461017
 Na X[3] Ny Nz        1543.63819692       3678.71280709
 Nx A[3] Ny Nz         514.54606564       4193.25887273
 Na X[2] Nyz         -7979.22159889      -3785.96272617
 Nx A[2] Nyz         -7985.15163276     -11771.11435893

@ Cubic response function value in a.u. for
@ A operator, symmetry, frequency:   YDIPLEN    3 -0.058400
@ B operator, symmetry, frequency:   YDIPLEN    3  0.058400
@ C operator, symmetry, frequency:   YDIPLEN    3 -0.058400
@ D operator, symmetry, frequency:   YDIPLEN    3  0.058400

@ << A; B, C, D >>  =      -11771.11435893



  Summary of gamma values for a set of frequencies
 -------------------------------------------------

@ B-freq:  0.058400
@ C-freq: -0.058400
@ D-freq:  0.058400

@ gamma(X;X,X,X)       9708.1983
@ gamma(X;X,Y,Y)       6058.1602
@ gamma(X;Y,Y,X)       6058.1602
@ gamma(X;Y,X,Y)       5876.1282
@ gamma(X;X,Z,Z)       1880.9975
@ gamma(X;Z,Z,X)       1880.9975
@ gamma(X;Z,X,Z)       1371.2070
@ gamma(Y;Y,X,X)       6058.1602
@ gamma(Y;X,X,Y)       6058.1602
@ gamma(Y;X,Y,X)       5877.8814
@ gamma(Y;Y,Y,Y)      11771.1144
@ gamma(Y;Y,Z,Z)       7347.9794
@ gamma(Y;Z,Z,Y)       7347.9794
@ gamma(Y;Z,Y,Z)       7252.4349
@ gamma(Z;Z,X,X)       1880.9975
@ gamma(Z;X,X,Z)       1880.9975
@ gamma(Z;X,Z,X)       1362.8410
@ gamma(Z;Z,Y,Y)       7347.9794
@ gamma(Z;Y,Y,Z)       7347.9794
@ gamma(Z;Y,Z,Y)       7251.5540
@ gamma(Z;Z,Z,Z)      33221.8114

@ Averaged gamma parallel to the applied field is     16949.597821

  Total CPU  time used in RESPONSE:   6 hours 36 minutes 24 seconds
  Total wall time used in RESPONSE:   6 hours 36 minutes 32 seconds


                   .-------------------------------------------.
                   | End of Dynamic Property Section (RESPONS) |
                   `-------------------------------------------'

  Total CPU  time used in DALTON:   7 hours 29 minutes 43 seconds
  Total wall time used in DALTON:   7 hours 29 minutes 55 seconds

 
     Date and time (Linux)  : Sat Jan 11 07:32:47 2020
     Host name              : Lab2-333-NPs                            
