

     ************************************************************************
     *************** Dalton - An Electronic Structure Program ***************
     ************************************************************************

    This is output from DALTON release Dalton2018.1 (2019)
         ( Web site: http://daltonprogram.org )

   ----------------------------------------------------------------------------

    NOTE:
     
    Dalton is an experimental code for the evaluation of molecular
    properties using (MC)SCF, DFT, CI, and CC wave functions.
    The authors accept no responsibility for the performance of
    the code or for the correctness of the results.
     
    The code (in whole or part) is provided under a licence and
    is not to be reproduced for further distribution without
    the written permission of the authors or their representatives.
     
    See the home page "http://daltonprogram.org" for further information.
     
    If results obtained with this code are published,
    the appropriate citations would be both of:
     
       K. Aidas, C. Angeli, K. L. Bak, V. Bakken, R. Bast,
       L. Boman, O. Christiansen, R. Cimiraglia, S. Coriani,
       P. Dahle, E. K. Dalskov, U. Ekstroem,
       T. Enevoldsen, J. J. Eriksen, P. Ettenhuber, B. Fernandez,
       L. Ferrighi, H. Fliegl, L. Frediani, K. Hald, A. Halkier,
       C. Haettig, H. Heiberg, T. Helgaker, A. C. Hennum,
       H. Hettema, E. Hjertenaes, S. Hoest, I.-M. Hoeyvik,
       M. F. Iozzi, B. Jansik, H. J. Aa. Jensen, D. Jonsson,
       P. Joergensen, J. Kauczor, S. Kirpekar,
       T. Kjaergaard, W. Klopper, S. Knecht, R. Kobayashi, H. Koch,
       J. Kongsted, A. Krapp, K. Kristensen, A. Ligabue,
       O. B. Lutnaes, J. I. Melo, K. V. Mikkelsen, R. H. Myhre,
       C. Neiss, C. B. Nielsen, P. Norman, J. Olsen,
       J. M. H. Olsen, A. Osted, M. J. Packer, F. Pawlowski,
       T. B. Pedersen, P. F. Provasi, S. Reine, Z. Rinkevicius,
       T. A. Ruden, K. Ruud, V. Rybkin, P. Salek, C. C. M. Samson,
       A. Sanchez de Meras, T. Saue, S. P. A. Sauer,
       B. Schimmelpfennig, K. Sneskov, A. H. Steindal,
       K. O. Sylvester-Hvid, P. R. Taylor, A. M. Teale,
       E. I. Tellgren, D. P. Tew, A. J. Thorvaldsen, L. Thoegersen,
       O. Vahtras, M. A. Watson, D. J. D. Wilson, M. Ziolkowski
       and H. Agren,
       "The Dalton quantum chemistry program system",
       WIREs Comput. Mol. Sci. 2014, 4:269–284 (doi: 10.1002/wcms.1172)
     
    and
     
       Dalton, a molecular electronic structure program,
       Release Dalton2018.1 (2019), see http://daltonprogram.org
   ----------------------------------------------------------------------------

    Authors in alphabetical order (major contribution(s) in parenthesis):

  Kestutis Aidas,           Vilnius University,           Lithuania   (QM/MM)
  Celestino Angeli,         University of Ferrara,        Italy       (NEVPT2)
  Keld L. Bak,              UNI-C,                        Denmark     (AOSOPPA, non-adiabatic coupling, magnetic properties)
  Vebjoern Bakken,          University of Oslo,           Norway      (DALTON; geometry optimizer, symmetry detection)
  Radovan Bast,             UiT The Arctic U. of Norway,  Norway      (DALTON installation and execution frameworks)
  Pablo Baudin,             University of Valencia,       Spain       (Cholesky excitation energies)
  Linus Boman,              NTNU,                         Norway      (Cholesky decomposition and subsystems)
  Ove Christiansen,         Aarhus University,            Denmark     (CC module)
  Renzo Cimiraglia,         University of Ferrara,        Italy       (NEVPT2)
  Sonia Coriani,            Technical Univ. of Denmark,   Denmark     (CC module, MCD in RESPONS)
  Janusz Cukras,            University of Trieste,        Italy       (MChD in RESPONS)
  Paal Dahle,               University of Oslo,           Norway      (Parallelization)
  Erik K. Dalskov,          UNI-C,                        Denmark     (SOPPA)
  Thomas Enevoldsen,        Univ. of Southern Denmark,    Denmark     (SOPPA)
  Janus J. Eriksen,         Aarhus University,            Denmark     (Polarizable embedding model, TDA)
  Rasmus Faber,             University of Copenhagen,     Denmark     (Vib.avg. NMR with SOPPA, parallel AO-SOPPA)
  Tobias Fahleson,          KTH Stockholm,                Sweden      (Damped cubic response)
  Berta Fernandez,          U. of Santiago de Compostela, Spain       (doublet spin, ESR in RESPONS)
  Lara Ferrighi,            Aarhus University,            Denmark     (PCM Cubic response)
  Heike Fliegl,             University of Oslo,           Norway      (CCSD(R12))
  Luca Frediani,            UiT The Arctic U. of Norway,  Norway      (PCM)
  Bin Gao,                  UiT The Arctic U. of Norway,  Norway      (Gen1Int library)
  Christof Haettig,         Ruhr-University Bochum,       Germany     (CC module)
  Kasper Hald,              Aarhus University,            Denmark     (CC module)
  Asger Halkier,            Aarhus University,            Denmark     (CC module)
  Frederik Beyer Hansen,    University of Copenhagen,     Denmark     (Parallel AO-SOPPA)
  Erik D. Hedegaard,        Univ. of Southern Denmark,    Denmark     (Polarizable embedding model, QM/MM)
  Hanne Heiberg,            University of Oslo,           Norway      (geometry analysis, selected one-electron integrals)
  Trygve Helgaker,          University of Oslo,           Norway      (DALTON; ABACUS, ERI, DFT modules, London, and much more)
  Alf Christian Hennum,     University of Oslo,           Norway      (Parity violation)
  Hinne Hettema,            University of Auckland,       New Zealand (quadratic response in RESPONS; SIRIUS supersymmetry)
  Eirik Hjertenaes,         NTNU,                         Norway      (Cholesky decomposition)
  Pi A. B. Haase,           University of Copenhagen,     Denmark     (Triplet AO-SOPPA)
  Maria Francesca Iozzi,    University of Oslo,           Norway      (RPA)
  Christoph Jacob           TU Braunschweig               Germany     (Frozen density embedding model)
  Brano Jansik              Technical Univ. of Ostrava    Czech Rep.  (DFT cubic response)
  Hans Joergen Aa. Jensen,  Univ. of Southern Denmark,    Denmark     (DALTON; SIRIUS, RESPONS, ABACUS modules, London, and much more)
  Dan Jonsson,              UiT The Arctic U. of Norway,  Norway      (cubic response in RESPONS module)
  Poul Joergensen,          Aarhus University,            Denmark     (RESPONS, ABACUS, and CC modules)
  Maciej Kaminski,          University of Warsaw,         Poland      (CPPh in RESPONS)
  Joanna Kauczor,           Linkoeping University,        Sweden      (Complex polarization propagator (CPP) module)
  Sheela Kirpekar,          Univ. of Southern Denmark,    Denmark     (Mass-velocity & Darwin integrals)
  Wim Klopper,              KIT Karlsruhe,                Germany     (R12 code in CC, SIRIUS, and ABACUS modules)
  Stefan Knecht,            ETH Zurich,                   Switzerland (Parallel CI and MCSCF)
  Rika Kobayashi,           Australian National Univ.,    Australia   (DIIS in CC, London in MCSCF)
  Henrik Koch,              NTNU,                         Norway      (CC module, Cholesky decomposition)
  Jacob Kongsted,           Univ. of Southern Denmark,    Denmark     (Polarizable embedding model, QM/MM)
  Andrea Ligabue,           University of Modena,         Italy       (CTOCD, AOSOPPA)
  Nanna H. List             Univ. of Southern Denmark,    Denmark     (Polarizable embedding model)
  Ola B. Lutnaes,           University of Oslo,           Norway      (DFT Hessian)
  Juan I. Melo,             University of Buenos Aires,   Argentina   (LRESC, Relativistic Effects on NMR Shieldings)
  Kurt V. Mikkelsen,        University of Copenhagen,     Denmark     (MC-SCRF and QM/MM)
  Rolf H. Myhre,            NTNU,                         Norway      (Subsystems and CC3)
  Christian Neiss,          Univ. Erlangen-Nuernberg,     Germany     (CCSD(R12))
  Christian B. Nielsen,     University of Copenhagen,     Denmark     (QM/MM)
  Patrick Norman,           KTH Stockholm,                Sweden      (Cubic response and complex frequency response in RESPONS)
  Jeppe Olsen,              Aarhus University,            Denmark     (SIRIUS CI/density modules)
  Jogvan Magnus H. Olsen,   Univ. of Southern Denmark,    Denmark     (Polarizable embedding model, QM/MM)
  Anders Osted,             Copenhagen University,        Denmark     (QM/MM)
  Martin J. Packer,         University of Sheffield,      UK          (SOPPA)
  Filip Pawlowski,          Kazimierz Wielki University,  Poland      (CC3)
  Morten N. Pedersen,       Univ. of Southern Denmark,    Denmark     (Polarizable embedding model)
  Thomas B. Pedersen,       University of Oslo,           Norway      (Cholesky decomposition)
  Patricio F. Provasi,      University of Northeastern,   Argentina   (Analysis of coupling constants in localized orbitals)
  Zilvinas Rinkevicius,     KTH Stockholm,                Sweden      (open-shell DFT, ESR)
  Elias Rudberg,            KTH Stockholm,                Sweden      (DFT grid and basis info)
  Torgeir A. Ruden,         University of Oslo,           Norway      (Numerical derivatives in ABACUS)
  Kenneth Ruud,             UiT The Arctic U. of Norway,  Norway      (DALTON; ABACUS magnetic properties and much more)
  Pawel Salek,              KTH Stockholm,                Sweden      (DALTON; DFT code)
  Claire C. M. Samson       University of Karlsruhe       Germany     (Boys localization, r12 integrals in ERI)
  Alfredo Sanchez de Meras, University of Valencia,       Spain       (CC module, Cholesky decomposition)
  Trond Saue,               Paul Sabatier University,     France      (direct Fock matrix construction)
  Stephan P. A. Sauer,      University of Copenhagen,     Denmark     (SOPPA(CCSD), SOPPA prop., AOSOPPA, vibrational g-factors)
  Andre S. P. Gomes,        CNRS/Universite de Lille,     France      (Frozen density embedding model)
  Bernd Schimmelpfennig,    Forschungszentrum Karlsruhe,  Germany     (AMFI module)
  Kristian Sneskov,         Aarhus University,            Denmark     (Polarizable embedding model, QM/MM)
  Arnfinn H. Steindal,      UiT The Arctic U. of Norway,  Norway      (parallel QM/MM, Polarizable embedding model)
  Casper Steinmann,         Univ. of Southern Denmark,    Denmark     (QFIT, Polarizable embedding model)
  K. O. Sylvester-Hvid,     University of Copenhagen,     Denmark     (MC-SCRF)
  Peter R. Taylor,          VLSCI/Univ. of Melbourne,     Australia   (Symmetry handling ABACUS, integral transformation)
  Andrew M. Teale,          University of Nottingham,     England     (DFT-AC, DFT-D)
  David P. Tew,             University of Bristol,        England     (CCSD(R12))
  Olav Vahtras,             KTH Stockholm,                Sweden      (triplet response, spin-orbit, ESR, TDDFT, open-shell DFT)
  Lucas Visscher,           Vrije Universiteit Amsterdam, Netherlands (Frozen density embedding model)
  David J. Wilson,          La Trobe University,          Australia   (DFT Hessian and DFT magnetizabilities)
  Hans Agren,               KTH Stockholm,                Sweden      (SIRIUS module, RESPONS, MC-SCRF solvation model)
 --------------------------------------------------------------------------------

     Date and time (Linux)  : Fri Jan 17 13:36:35 2020
     Host name              : Lab2-333-NPs                            

 * Work memory size             :  1024000000 =  7.629 gigabytes.

 * Directories for basis set searches:
   1) /home/lab333/dalton/build_2018_atlas
   2) /home/lab333/dalton/build_2018_atlas/basis


Compilation information
-----------------------

 Who compiled             | lab333
 Host                     | Lab2-333-NPs
 System                   | Linux-4.4.0-43-Microsoft
 CMake generator          | Unix Makefiles
 Processor                | x86_64
 64-bit integers          | OFF
 MPI                      | OFF
 Fortran compiler         | /usr/bin/gfortran
 Fortran compiler version | GNU Fortran (Ubuntu 7.3.0-27ubuntu1~18.04) 7.3.0
 C compiler               | /usr/bin/gcc
 C compiler version       | gcc (Ubuntu 7.3.0-27ubuntu1~18.04) 7.3.0
 C++ compiler             | /usr/bin/g++
 C++ compiler version     | g++ (Ubuntu 7.3.0-27ubuntu1~18.04) 7.3.0
 BLAS                     | /usr/lib/x86_64-linux-gnu/libf77blas.so;/usr/lib/x
                          | 86_64-linux-gnu/libcblas.so;/usr/lib/x86_64-linux-
                          | gnu/libatlas.so
 LAPACK                   | /usr/lib/x86_64-linux-gnu/libatlas.so;/usr/lib/x86
                          | _64-linux-gnu/atlas/liblapack.so
 Static linking           | OFF
 Last Git revision        | da625bf48c74028e805616daee31bc5d76b3a20d
 Git branch               | (HEAD detached at Dalton2018.1)
 Configuration time       | 2019-01-18 10:20:51.437510


   Content of the .dal input file
 ----------------------------------

**DALTON INPUT
.RUN RESPONSE
.DIRECT
**WAVE FUNCTIONS
.HF
.MP2
.MCSCF
*CONFIGURATION INPUT
.SPIN MULTIPLICITY
1
.SYMMETRY
1
.INACTIVE ORBITALS
15 10 2 0
.CAS SPACE
1 1 2 3
.ELECTRONS
10
*ORBITAL INPUT
.MOSTART
.HUCKEL
*OPTIMIZATION
.DETERMINANTS
.STATE
2
*CI VECTOR
.PLUS COMBINATIONS
**RESPONSE
*CUBIC
.DIPLEN
.BFREQ
1
0.0584
.CFREQ
1
-0.0584
.DFREQ
1
0.0584
**END OF DALTON INPUT


   Content of the .mol file
 ----------------------------

BASIS
aug-cc-pCVDZ
 nitrobenzene
 Generated by the Dalton Input File Plugin for Avogadro
Atomtypes=4 Angstrom Generators=2 X Y
Charge=6.0 Atoms=4
C        0.0000000000            0.0000000000           -0.0265759623
C       -1.2190534920            0.0000000000           -0.6979856948
C       -1.2105095870            0.0000000000           -2.0897394457
C        0.0000000000            0.0000000000           -2.7841484631
Charge=7.0 Atoms=1
N        0.0000000000            0.0000000000            1.4549291696
Charge=8.0 Atoms=1
O       0.4849137089925772            0.0            2.579608474431794
Charge=1.0 Atoms=3
H       -2.1410602955            0.0000000000           -0.1327964319
H       -2.1492827751            0.0000000000           -2.6311811056
H        0.0000000000            0.0000000000           -3.8683953478


       *******************************************************************
       *********** Output from DALTON general input processing ***********
       *******************************************************************

 --------------------------------------------------------------------------------
   Overall default print level:    0
   Print level for DALTON.STAT:    1

    AO-direct calculation (in sections where implemented)
    HERMIT 1- and 2-electron integral sections will be executed
    "Old" integral transformation used (limited to max 255 basis functions)
    Wave function sections will be executed (SIRIUS module)
    Dynamic molecular response properties section will be executed (RESPONSE module)
 --------------------------------------------------------------------------------


   ****************************************************************************
   *************** Output of molecule and basis set information ***************
   ****************************************************************************


    The two title cards from your ".mol" input:
    ------------------------------------------------------------------------
 1:  nitrobenzene                                                           
 2:  Generated by the Dalton Input File Plugin for Avogadro                 
    ------------------------------------------------------------------------

  Coordinates are entered in Angstrom and converted to atomic units.
          - Conversion factor : 1 bohr = 0.52917721 A

  Atomic type no.    1
  --------------------
  Nuclear charge:   6.00000
  Number of symmetry independent centers:    4
  Number of basis sets to read;    2
  Basis set file used for this atomic type with Z =   6 :
     "/home/lab333/dalton/build_2018_atlas/basis/aug-cc-pCVDZ"

  Atomic type no.    2
  --------------------
  Nuclear charge:   7.00000
  Number of symmetry independent centers:    1
  Number of basis sets to read;    2
  Basis set file used for this atomic type with Z =   7 :
     "/home/lab333/dalton/build_2018_atlas/basis/aug-cc-pCVDZ"

  Atomic type no.    3
  --------------------
  Nuclear charge:   8.00000
  Number of symmetry independent centers:    1
  Number of basis sets to read;    2
  Basis set file used for this atomic type with Z =   8 :
     "/home/lab333/dalton/build_2018_atlas/basis/aug-cc-pCVDZ"

  Atomic type no.    4
  --------------------
  Nuclear charge:   1.00000
  Number of symmetry independent centers:    3
  Number of basis sets to read;    2
  Basis set file used for this atomic type with Z =   1 :
     "/home/lab333/dalton/build_2018_atlas/basis/aug-cc-pCVDZ"


                         SYMGRP: Point group information
                         -------------------------------

@    Point group: C2v

@  * The irrep name for each symmetry:    1: A1     2: B1     3: B2     4: A2 

   * The point group was generated by:

      Reflection in the yz-plane
      Reflection in the xz-plane

   * Group multiplication table

        |  E   C2z  Oxz  Oyz
   -----+--------------------
     E  |  E   C2z  Oxz  Oyz
    C2z | C2z   E   Oyz  Oxz
    Oxz | Oxz  Oyz   E   C2z
    Oyz | Oyz  Oxz  C2z   E 

   * Character table

        |  E   C2z  Oxz  Oyz
   -----+--------------------
    A1  |   1    1    1    1
    B1  |   1   -1    1   -1
    B2  |   1   -1   -1    1
    A2  |   1    1   -1   -1

   * Direct product table

        | A1   B1   B2   A2 
   -----+--------------------
    A1  | A1   B1   B2   A2 
    B1  | B1   A1   A2   B2 
    B2  | B2   A2   A1   B1 
    A2  | A2   B2   B1   A1 


                                 Isotopic Masses
                                 ---------------

                           C          12.000000
                           C   _1     12.000000
                           C   _2     12.000000
                           C   _1     12.000000
                           C   _2     12.000000
                           C          12.000000
                           N          14.003074
                           O   _1     15.994915
                           O   _2     15.994915
                           H   _1      1.007825
                           H   _2      1.007825
                           H   _1      1.007825
                           H   _2      1.007825
                           H           1.007825

                       Total mass:   123.032029 amu
                       Natural abundance:  92.716 %

 Center-of-mass coordinates (a.u.):    0.000000    0.000000   -0.110731


  Atoms and basis sets
  --------------------

  Number of atom types :    4
  Total number of atoms:   14

  Basis set used is "aug-cc-pCVDZ" from the basis set library.

  label    atoms   charge   prim   cont     basis
  ----------------------------------------------------------------------
  C           6    6.0000    39    27      [11s6p2d|5s4p2d]                                   
  N           1    7.0000    39    27      [11s6p2d|5s4p2d]                                   
  O           2    8.0000    39    27      [11s6p2d|5s4p2d]                                   
  H           5    1.0000    11     9      [5s2p|3s2p]                                        
  ----------------------------------------------------------------------
  total:     14   64.0000   406   288
  ----------------------------------------------------------------------
  Spherical harmonic basis used.

  Threshold for neglecting AO integrals:  1.00D-12


  Symmetry Coordinates
  --------------------

  Number of coordinates in each symmetry:    14   14    9    5


   Interatomic separations (in Angstrom):
   --------------------------------------

            C           C   _1      C   _2      C   _1      C   _2      C     
            ------      ------      ------      ------      ------      ------
 C     :    0.000000
 C   _1:    1.391719    0.000000
 C   _2:    1.391719    2.438107    0.000000
 C   _1:    2.392065    1.391780    2.799956    0.000000
 C   _2:    2.392065    2.799956    1.391780    2.421019    0.000000
 C     :    2.757573    2.416230    2.416230    1.395542    1.395542    0.000000
 N     :    1.481505    2.474093    2.474093    3.745665    3.745665    4.239078
 O   _1:    2.650913    3.694067    3.358807    4.967622    4.725389    5.385632
 O   _2:    2.650913    3.358807    3.694067    4.725389    4.967622    5.385632
 H   _1:    2.143694    1.081451    3.407316    2.166922    3.881063    3.407904
 H   _2:    2.143694    3.407316    1.081451    3.881063    2.166922    3.407904
 H   _1:    3.376890    2.145360    3.883675    1.083722    3.403140    2.154719
 H   _2:    3.376890    3.883675    2.145360    3.403140    1.083722    2.154719
 H     :    3.841819    3.396703    3.396703    2.151500    2.151500    1.084247

            N           O   _1      O   _2      H   _1      H   _2      H   _1
            ------      ------      ------      ------      ------      ------
 N     :    0.000000
 O   _1:    1.224763    0.000000
 O   _2:    1.224763    0.969827    0.000000
 H   _1:    2.665523    3.775299    3.178044    0.000000
 H   _2:    2.665523    3.178044    3.775299    4.282121    0.000000
 H   _1:    4.616894    5.838777    5.470142    2.498398    4.964773    0.000000
 H   _2:    4.616894    5.470142    5.838777    4.964773    2.498398    4.298566
 H     :    5.323325    6.466212    6.466212    4.305675    4.305675    2.479943

            H   _2      H     
            ------      ------
 H   _2:    0.000000
 H     :    2.479943    0.000000


  Max    interatomic separation is    6.4662 Angstrom (   12.2194 Bohr)
  between atoms   14 and    8, "H     " and "O   _1".

  Min HX interatomic separation is    1.0815 Angstrom (    2.0436 Bohr)

  Min YX interatomic separation is    0.9698 Angstrom (    1.8327 Bohr)

@ WARNING: Number of short HX and YX bond lengths:    0    1
@ WARNING: If not intentional, maybe your coordinates were in Angstrom,
@ WARNING: but "Angstrom" was not specified in .mol file


  Bond distances (Angstrom):
  --------------------------

                  atom 1     atom 2       distance
                  ------     ------       --------
  bond distance:  C   _1     C            1.391719
  bond distance:  C   _2     C            1.391719
  bond distance:  C   _1     C   _1       1.391780
  bond distance:  C   _2     C   _2       1.391780
  bond distance:  C          C   _1       1.395542
  bond distance:  C          C   _2       1.395542
  bond distance:  N          C            1.481505
  bond distance:  O   _1     N            1.224763
  bond distance:  O   _2     N            1.224763
  bond distance:  O   _2     O   _1       0.969827
  bond distance:  H   _1     C   _1       1.081451
  bond distance:  H   _2     C   _2       1.081451
  bond distance:  H   _1     C   _1       1.083722
  bond distance:  H   _2     C   _2       1.083722
  bond distance:  H          C            1.084247


  Bond angles (degrees):
  ----------------------

                  atom 1     atom 2     atom 3         angle
                  ------     ------     ------         -----
  bond angle:     C   _1     C          C   _2       122.311
  bond angle:     C   _1     C          N            118.844
  bond angle:     C   _2     C          N            118.844
  bond angle:     C          C   _1     C   _1       118.493
  bond angle:     C          C   _1     H   _1       119.647
  bond angle:     C   _1     C   _1     H   _1       121.860
  bond angle:     C          C   _2     C   _2       118.493
  bond angle:     C          C   _2     H   _2       119.647
  bond angle:     C   _2     C   _2     H   _2       121.860
  bond angle:     C   _1     C   _1     C            120.192
  bond angle:     C   _1     C   _1     H   _1       119.623
  bond angle:     C          C   _1     H   _1       120.185
  bond angle:     C   _2     C   _2     C            120.192
  bond angle:     C   _2     C   _2     H   _2       119.623
  bond angle:     C          C   _2     H   _2       120.185
  bond angle:     C   _1     C          C   _2       120.319
  bond angle:     C   _1     C          H            119.841
  bond angle:     C   _2     C          H            119.841
  bond angle:     C          N          O   _1       156.676
  bond angle:     C          N          O   _2       156.676
  bond angle:     O   _1     N          O   _2        46.647
  bond angle:     N          O   _1     O   _2        66.676
  bond angle:     N          O   _2     O   _1        66.676




 Principal moments of inertia (u*A**2) and principal axes
 --------------------------------------------------------

   IA      96.907474          0.000000    0.000000    1.000000
   IB     480.690662          1.000000    0.000000    0.000000
   IC     577.598136          0.000000    1.000000    0.000000


 Rotational constants
 --------------------

@    The molecule is planar.

               A                   B                   C

           5215.0674           1051.3601            874.9665 MHz
            0.173956            0.035070            0.029186 cm-1


@  Nuclear repulsion energy :  420.492003028797 Hartree


  Symmetry Orbitals
  -----------------

  Number of orbitals in each symmetry:         115   91   48   34


  Symmetry  A1 ( 1)

    1     C        1s         1
    2     C        1s         2
    3     C        1s         3
    4     C        1s         4
    5     C        1s         5
    6     C        2pz        8
    7     C        2pz       11
    8     C        2pz       14
    9     C        2pz       17
   10     C        3d0       20
   11     C        3d2+      22
   12     C        3d0       25
   13     C        3d2+      27
   14     C        1s        28 +   29
   15     C        1s        30 +   31
   16     C        1s        32 +   33
   17     C        1s        34 +   35
   18     C        1s        36 +   37
   19     C        2px       38 -   39
   20     C        2pz       42 +   43
   21     C        2px       44 -   45
   22     C        2pz       48 +   49
   23     C        2px       50 -   51
   24     C        2pz       54 +   55
   25     C        2px       56 -   57
   26     C        2pz       60 +   61
   27     C        3d0       66 +   67
   28     C        3d1+      68 -   69
   29     C        3d2+      70 +   71
   30     C        3d0       76 +   77
   31     C        3d1+      78 -   79
   32     C        3d2+      80 +   81
   33     C        1s        82 +   83
   34     C        1s        84 +   85
   35     C        1s        86 +   87
   36     C        1s        88 +   89
   37     C        1s        90 +   91
   38     C        2px       92 -   93
   39     C        2pz       96 +   97
   40     C        2px       98 -   99
   41     C        2pz      102 +  103
   42     C        2px      104 -  105
   43     C        2pz      108 +  109
   44     C        2px      110 -  111
   45     C        2pz      114 +  115
   46     C        3d0      120 +  121
   47     C        3d1+     122 -  123
   48     C        3d2+     124 +  125
   49     C        3d0      130 +  131
   50     C        3d1+     132 -  133
   51     C        3d2+     134 +  135
   52     C        1s       136
   53     C        1s       137
   54     C        1s       138
   55     C        1s       139
   56     C        1s       140
   57     C        2pz      143
   58     C        2pz      146
   59     C        2pz      149
   60     C        2pz      152
   61     C        3d0      155
   62     C        3d2+     157
   63     C        3d0      160
   64     C        3d2+     162
   65     N        1s       163
   66     N        1s       164
   67     N        1s       165
   68     N        1s       166
   69     N        1s       167
   70     N        2pz      170
   71     N        2pz      173
   72     N        2pz      176
   73     N        2pz      179
   74     N        3d0      182
   75     N        3d2+     184
   76     N        3d0      187
   77     N        3d2+     189
   78     O        1s       190 +  191
   79     O        1s       192 +  193
   80     O        1s       194 +  195
   81     O        1s       196 +  197
   82     O        1s       198 +  199
   83     O        2px      200 -  201
   84     O        2pz      204 +  205
   85     O        2px      206 -  207
   86     O        2pz      210 +  211
   87     O        2px      212 -  213
   88     O        2pz      216 +  217
   89     O        2px      218 -  219
   90     O        2pz      222 +  223
   91     O        3d0      228 +  229
   92     O        3d1+     230 -  231
   93     O        3d2+     232 +  233
   94     O        3d0      238 +  239
   95     O        3d1+     240 -  241
   96     O        3d2+     242 +  243
   97     H        1s       244 +  245
   98     H        1s       246 +  247
   99     H        1s       248 +  249
  100     H        2px      250 -  251
  101     H        2pz      254 +  255
  102     H        2px      256 -  257
  103     H        2pz      260 +  261
  104     H        1s       262 +  263
  105     H        1s       264 +  265
  106     H        1s       266 +  267
  107     H        2px      268 -  269
  108     H        2pz      272 +  273
  109     H        2px      274 -  275
  110     H        2pz      278 +  279
  111     H        1s       280
  112     H        1s       281
  113     H        1s       282
  114     H        2pz      285
  115     H        2pz      288


  Symmetry  B1 ( 2)

  116     C        2px        6
  117     C        2px        9
  118     C        2px       12
  119     C        2px       15
  120     C        3d1+      21
  121     C        3d1+      26
  122     C        1s        28 -   29
  123     C        1s        30 -   31
  124     C        1s        32 -   33
  125     C        1s        34 -   35
  126     C        1s        36 -   37
  127     C        2px       38 +   39
  128     C        2pz       42 -   43
  129     C        2px       44 +   45
  130     C        2pz       48 -   49
  131     C        2px       50 +   51
  132     C        2pz       54 -   55
  133     C        2px       56 +   57
  134     C        2pz       60 -   61
  135     C        3d0       66 -   67
  136     C        3d1+      68 +   69
  137     C        3d2+      70 -   71
  138     C        3d0       76 -   77
  139     C        3d1+      78 +   79
  140     C        3d2+      80 -   81
  141     C        1s        82 -   83
  142     C        1s        84 -   85
  143     C        1s        86 -   87
  144     C        1s        88 -   89
  145     C        1s        90 -   91
  146     C        2px       92 +   93
  147     C        2pz       96 -   97
  148     C        2px       98 +   99
  149     C        2pz      102 -  103
  150     C        2px      104 +  105
  151     C        2pz      108 -  109
  152     C        2px      110 +  111
  153     C        2pz      114 -  115
  154     C        3d0      120 -  121
  155     C        3d1+     122 +  123
  156     C        3d2+     124 -  125
  157     C        3d0      130 -  131
  158     C        3d1+     132 +  133
  159     C        3d2+     134 -  135
  160     C        2px      141
  161     C        2px      144
  162     C        2px      147
  163     C        2px      150
  164     C        3d1+     156
  165     C        3d1+     161
  166     N        2px      168
  167     N        2px      171
  168     N        2px      174
  169     N        2px      177
  170     N        3d1+     183
  171     N        3d1+     188
  172     O        1s       190 -  191
  173     O        1s       192 -  193
  174     O        1s       194 -  195
  175     O        1s       196 -  197
  176     O        1s       198 -  199
  177     O        2px      200 +  201
  178     O        2pz      204 -  205
  179     O        2px      206 +  207
  180     O        2pz      210 -  211
  181     O        2px      212 +  213
  182     O        2pz      216 -  217
  183     O        2px      218 +  219
  184     O        2pz      222 -  223
  185     O        3d0      228 -  229
  186     O        3d1+     230 +  231
  187     O        3d2+     232 -  233
  188     O        3d0      238 -  239
  189     O        3d1+     240 +  241
  190     O        3d2+     242 -  243
  191     H        1s       244 -  245
  192     H        1s       246 -  247
  193     H        1s       248 -  249
  194     H        2px      250 +  251
  195     H        2pz      254 -  255
  196     H        2px      256 +  257
  197     H        2pz      260 -  261
  198     H        1s       262 -  263
  199     H        1s       264 -  265
  200     H        1s       266 -  267
  201     H        2px      268 +  269
  202     H        2pz      272 -  273
  203     H        2px      274 +  275
  204     H        2pz      278 -  279
  205     H        2px      283
  206     H        2px      286


  Symmetry  B2 ( 3)

  207     C        2py        7
  208     C        2py       10
  209     C        2py       13
  210     C        2py       16
  211     C        3d1-      19
  212     C        3d1-      24
  213     C        2py       40 +   41
  214     C        2py       46 +   47
  215     C        2py       52 +   53
  216     C        2py       58 +   59
  217     C        3d2-      62 -   63
  218     C        3d1-      64 +   65
  219     C        3d2-      72 -   73
  220     C        3d1-      74 +   75
  221     C        2py       94 +   95
  222     C        2py      100 +  101
  223     C        2py      106 +  107
  224     C        2py      112 +  113
  225     C        3d2-     116 -  117
  226     C        3d1-     118 +  119
  227     C        3d2-     126 -  127
  228     C        3d1-     128 +  129
  229     C        2py      142
  230     C        2py      145
  231     C        2py      148
  232     C        2py      151
  233     C        3d1-     154
  234     C        3d1-     159
  235     N        2py      169
  236     N        2py      172
  237     N        2py      175
  238     N        2py      178
  239     N        3d1-     181
  240     N        3d1-     186
  241     O        2py      202 +  203
  242     O        2py      208 +  209
  243     O        2py      214 +  215
  244     O        2py      220 +  221
  245     O        3d2-     224 -  225
  246     O        3d1-     226 +  227
  247     O        3d2-     234 -  235
  248     O        3d1-     236 +  237
  249     H        2py      252 +  253
  250     H        2py      258 +  259
  251     H        2py      270 +  271
  252     H        2py      276 +  277
  253     H        2py      284
  254     H        2py      287


  Symmetry  A2 ( 4)

  255     C        3d2-      18
  256     C        3d2-      23
  257     C        2py       40 -   41
  258     C        2py       46 -   47
  259     C        2py       52 -   53
  260     C        2py       58 -   59
  261     C        3d2-      62 +   63
  262     C        3d1-      64 -   65
  263     C        3d2-      72 +   73
  264     C        3d1-      74 -   75
  265     C        2py       94 -   95
  266     C        2py      100 -  101
  267     C        2py      106 -  107
  268     C        2py      112 -  113
  269     C        3d2-     116 +  117
  270     C        3d1-     118 -  119
  271     C        3d2-     126 +  127
  272     C        3d1-     128 -  129
  273     C        3d2-     153
  274     C        3d2-     158
  275     N        3d2-     180
  276     N        3d2-     185
  277     O        2py      202 -  203
  278     O        2py      208 -  209
  279     O        2py      214 -  215
  280     O        2py      220 -  221
  281     O        3d2-     224 +  225
  282     O        3d1-     226 -  227
  283     O        3d2-     234 +  235
  284     O        3d1-     236 -  237
  285     H        2py      252 -  253
  286     H        2py      258 -  259
  287     H        2py      270 -  271
  288     H        2py      276 -  277

  Symmetries of electric field:  B1 (2)  B2 (3)  A1 (1)

  Symmetries of magnetic field:  B2 (3)  B1 (2)  A2 (4)


                     .---------------------------------------.
                     | Starting in Integral Section (HERMIT) |
                     `---------------------------------------'



 ***************************************************************************************
 ****************** Output from **INTEGRALS input processing (HERMIT) ******************
 ***************************************************************************************


 - Using defaults, no **INTEGRALS input found

 Default print level:        1

 Calculation of one-electron Hamiltonian integrals.

 Center of mass  (bohr):      0.000000000000      0.000000000000     -0.110731485320
 Operator center (bohr):      0.000000000000      0.000000000000      0.000000000000
 Gauge origin    (bohr):      0.000000000000      0.000000000000      0.000000000000
 Dipole origin   (bohr):      0.000000000000      0.000000000000      0.000000000000


     ************************************************************************
     ************************** Output from HERINT **************************
     ************************************************************************



                      Nuclear contribution to dipole moments
                      --------------------------------------

                 au               Debye          C m (/(10**-30)

      z    -15.59998941       -39.65121548      -132.26221814


  Time used in GABGEN     is       0.11 seconds
  Total CPU  time used in HERMIT:   0.41 seconds
  Total wall time used in HERMIT:   0.40 seconds


                        .----------------------------------.
                        | End of Integral Section (HERMIT) |
                        `----------------------------------'



                   .--------------------------------------------.
                   | Starting in Wave Function Section (SIRIUS) |
                   `--------------------------------------------'


 *** Output from Huckel module :

     Using EWMO model:          F
     Using EHT  model:          T
     Number of Huckel orbitals each symmetry:   24   17    6    3

 Huckel EHT eigenvalues for symmetry :  1
          -20.754832     -15.706238     -11.414837     -11.394396     -11.376673
          -11.362577      -2.018117      -1.579288      -1.284365      -1.031262
           -0.838821      -0.750563      -0.638896      -0.579707      -0.546489
           -0.440281      -0.315665      -0.237688      -0.219883      -0.213399
           -0.205725      -0.178497      -0.166816      -0.160385

 Huckel EHT eigenvalues for symmetry :  2
          -20.718690     -11.396449     -11.377840      -1.233683      -1.108675
           -0.880837      -0.561114      -0.533193      -0.476194      -0.416013
           -0.336048      -0.284809      -0.213860      -0.202822      -0.176271
           -0.165474      -0.163329

 Huckel EHT eigenvalues for symmetry :  3
           -0.871265      -0.703742      -0.491399      -0.395584      -0.281647
           -0.236537

 Huckel EHT eigenvalues for symmetry :  4
           -0.461096      -0.452269      -0.288960

 **********************************************************************
 *SIRIUS* a direct, restricted step, second order MCSCF program       *
 **********************************************************************

 
     Date and time (Linux)  : Fri Jan 17 13:36:36 2020
     Host name              : Lab2-333-NPs                            

 Title lines from ".mol" input file:
      nitrobenzene                                                           
      Generated by the Dalton Input File Plugin for Avogadro                 

 Print level on unit LUPRI =   2 is   0
 Print level on unit LUW4  =   2 is   5

@    MC-SCF optimization.

@    Multi-configurational response calculation.
@              Type: complete active space calculation (CAS).

@    This is a combination run starting with
@              a restricted, closed shell Hartree-Fock calculation
@              an MP2 calculation

 Fock matrices are calculated directly without use of integrals on disk.

 Initial molecular orbitals are obtained according to
 ".MOSTART EHT   " input option

     Wave function specification
     ============================
@    Wave function type        --- MC-SCF ---
@    Number of closed shell electrons          54
@    Number of electrons in active shells      10
@    Total charge of the molecule               0

@    Spin multiplicity and 2 M_S                1         0
@    Total number of symmetries                 4 (point group: C2v)
@    Reference state symmetry                   1 (irrep name : A1 )

     Orbital specifications
     ======================
@    Abelian symmetry species          All |    1    2    3    4
@                                          |  A1   B1   B2   A2 
                                       --- |  ---  ---  ---  ---
@    Inactive orbitals                  27 |   15   10    2    0
@    Active orbitals                     7 |    1    1    2    3
@    Secondary orbitals                254 |   99   80   44   31
@    Total number of orbitals          288 |  115   91   48   34
@    Number of basis functions         288 |  115   91   48   34

      ** Automatic occupation of RHF orbitals **

      -- Initial occupation of symmetries is determined from extended Huckel guess.           
      -- Initial occupation of symmetries is :
@    Occupied SCF orbitals              32 |   16   10    4    2

     Optimization information
     ========================
@    Number of determinants                 115
@    Number of orbital rotations           2762
     ------------------------------------------
@    Total number of variables             2877

     Maximum number of macro iterations      40
     Maximum number of micro iterations     960
     Threshold for MCSCF gradient      1.00D-05
     Number of initial trial vectors          2
     Number of initial CI iterations          3
     Number of simultaneous trial vectors     2

@    This calculation converges to state no.   2 for the specified symmetry and spin species.

     Maximum number of NEO/NR iterations  24

    INFORMATION: Switched to "new" integral transformation (from 1988 ;-) )
    because more than 255 basis functions.


 ***********************************************
 ***** DIIS acceleration of SCF iterations *****
 ***********************************************

 C1-DIIS algorithm; max error vectors =    8

 Automatic occupation of symmetries with  64 electrons.

 Iter     Total energy    Error norm  Delta(E)    SCF occupation
 -----------------------------------------------------------------------------
   1  Screening settings (-IFTHRS, JTDIIS, DIFDEN, times)   -8    1    T  2.63D+01  2.63D+01
@  1  -431.800593444       6.61D+00  -4.32D+02    16  10   4   2
      Virial theorem: -V/T =      1.995771
@    MULPOP   C       0.51; C   _1  0.09; C   _2  0.09; C   _1  0.26; C   _2  0.26; C       0.19; N      -0.06; O   _1 -0.21; O   _2 -0.21; H   _1 -0.19; 
@             H   _2 -0.19; H   _1 -0.18; H   _2 -0.18; H      -0.18; 
   1  Level shift: doubly occupied orbital energies shifted by -2.00D-01
 -----------------------------------------------------------------------------
   2  Screening settings (-IFTHRS, JTDIIS, DIFDEN, times)   -8    2    T  2.62D+01  2.62D+01
@  2  -433.511630034       1.44D+00  -1.71D+00    16  10   4   2
      Virial theorem: -V/T =      1.989675
@    MULPOP   C       1.72; C   _1  0.02; C   _2  0.02; C   _1  0.43; C   _2  0.43; C       0.36; N       0.16; O   _1 -0.48; O   _2 -0.48; H   _1 -0.46; 
@             H   _2 -0.46; H   _1 -0.41; H   _2 -0.41; H      -0.42; 
   2  Level shift: doubly occupied orbital energies shifted by -5.00D-02
 -----------------------------------------------------------------------------
   3  Screening settings (-IFTHRS, JTDIIS, DIFDEN, times)   -8    3    T  2.60D+01  2.60D+01
@  3  -433.629990829       4.07D-01  -1.18D-01    16  10   4   2
      Virial theorem: -V/T =      1.996096
@    MULPOP   C       2.15; C   _1 -0.08; C   _2 -0.08; C   _1  0.58; C   _2  0.58; C       0.32; N       0.07; O   _1 -0.55; O   _2 -0.55; H   _1 -0.51; 
@             H   _2 -0.51; H   _1 -0.46; H   _2 -0.46; H      -0.47; 
   3  Level shift: doubly occupied orbital energies shifted by -2.50D-02
 -----------------------------------------------------------------------------
   4  Screening settings (-IFTHRS, JTDIIS, DIFDEN, times)   -8    4    T  2.58D+01  2.59D+01
@  4  -433.641966979       1.18D-01  -1.20D-02    16  10   4   2
      Virial theorem: -V/T =      1.994669
@    MULPOP   C       2.17; C   _1 -0.12; C   _2 -0.12; C   _1  0.59; C   _2  0.59; C       0.32; N       0.00; O   _1 -0.54; O   _2 -0.54; H   _1 -0.49; 
@             H   _2 -0.49; H   _1 -0.45; H   _2 -0.45; H      -0.46; 
   4  Level shift: doubly occupied orbital energies shifted by -1.25D-02
 -----------------------------------------------------------------------------
   5  Screening settings (-IFTHRS, JTDIIS, DIFDEN, times)  -10    5    F  2.64D+01  2.64D+01
@  5  -433.642960215       5.06D-02  -9.93D-04    16  10   4   2
      Virial theorem: -V/T =      1.994575
@    MULPOP   C       2.19; C   _1 -0.12; C   _2 -0.12; C   _1  0.59; C   _2  0.59; C       0.30; N       0.00; O   _1 -0.55; O   _2 -0.55; H   _1 -0.49; 
@             H   _2 -0.49; H   _1 -0.44; H   _2 -0.44; H      -0.45; 
 -----------------------------------------------------------------------------
   6  Screening settings (-IFTHRS, JTDIIS, DIFDEN, times)  -10    6    T  2.61D+01  2.61D+01
@  6  -433.643129011       1.12D-02  -1.69D-04    16  10   4   2
      Virial theorem: -V/T =      1.994679
@    MULPOP   C       2.19; C   _1 -0.13; C   _2 -0.13; C   _1  0.59; C   _2  0.59; C       0.30; N      -0.01; O   _1 -0.55; O   _2 -0.55; H   _1 -0.49; 
@             H   _2 -0.49; H   _1 -0.44; H   _2 -0.44; H      -0.45; 
 -----------------------------------------------------------------------------
   7  Screening settings (-IFTHRS, JTDIIS, DIFDEN, times)  -13    7    F  2.67D+01  2.68D+01
@  7  -433.643141367       2.21D-03  -1.24D-05    16  10   4   2
      Virial theorem: -V/T =      1.994658
@    MULPOP   C       2.19; C   _1 -0.13; C   _2 -0.13; C   _1  0.59; C   _2  0.59; C       0.30; N      -0.01; O   _1 -0.55; O   _2 -0.55; H   _1 -0.49; 
@             H   _2 -0.49; H   _1 -0.44; H   _2 -0.44; H      -0.45; 
 -----------------------------------------------------------------------------
   8  Screening settings (-IFTHRS, JTDIIS, DIFDEN, times)  -13    8    T  2.64D+01  2.64D+01
@  8  -433.643142124       9.26D-04  -7.57D-07    16  10   4   2
      Virial theorem: -V/T =      1.994657
@    MULPOP   C       2.19; C   _1 -0.13; C   _2 -0.13; C   _1  0.59; C   _2  0.59; C       0.30; N      -0.01; O   _1 -0.55; O   _2 -0.55; H   _1 -0.49; 
@             H   _2 -0.49; H   _1 -0.44; H   _2 -0.44; H      -0.45; 
 -----------------------------------------------------------------------------
   9  Screening settings (-IFTHRS, JTDIIS, DIFDEN, times)  -13    9    T  2.63D+01  2.63D+01
@  9  -433.643142226       3.02D-04  -1.02D-07    16  10   4   2
      Virial theorem: -V/T =      1.994658
@    MULPOP   C       2.19; C   _1 -0.13; C   _2 -0.13; C   _1  0.59; C   _2  0.59; C       0.30; N      -0.01; O   _1 -0.55; O   _2 -0.55; H   _1 -0.49; 
@             H   _2 -0.49; H   _1 -0.44; H   _2 -0.44; H      -0.45; 
 -----------------------------------------------------------------------------
  10  Screening settings (-IFTHRS, JTDIIS, DIFDEN, times)  -13   10    T  2.78D+01  2.78D+01
@ 10  -433.643142245       8.92D-05  -1.92D-08    16  10   4   2
      Virial theorem: -V/T =      1.994658
@    MULPOP   C       2.19; C   _1 -0.13; C   _2 -0.13; C   _1  0.59; C   _2  0.59; C       0.30; N      -0.01; O   _1 -0.55; O   _2 -0.55; H   _1 -0.49; 
@             H   _2 -0.49; H   _1 -0.44; H   _2 -0.44; H      -0.45; 
 -----------------------------------------------------------------------------
  11  Screening settings (-IFTHRS, JTDIIS, DIFDEN, times)  -13   11    T  2.84D+01  2.84D+01
@ 11  -433.643142248       4.81D-05  -2.55D-09    16  10   4   2
      Virial theorem: -V/T =      1.994658
@    MULPOP   C       2.19; C   _1 -0.13; C   _2 -0.13; C   _1  0.59; C   _2  0.59; C       0.30; N      -0.01; O   _1 -0.55; O   _2 -0.55; H   _1 -0.49; 
@             H   _2 -0.49; H   _1 -0.44; H   _2 -0.44; H      -0.45; 
 -----------------------------------------------------------------------------
  12  Screening settings (-IFTHRS, JTDIIS, DIFDEN, times)  -13   12    T  2.71D+01  2.71D+01
@ 12  -433.643142248       2.42D-05  -5.81D-10    16  10   4   2
      Virial theorem: -V/T =      1.994658
@    MULPOP   C       2.19; C   _1 -0.13; C   _2 -0.13; C   _1  0.59; C   _2  0.59; C       0.30; N      -0.01; O   _1 -0.55; O   _2 -0.55; H   _1 -0.49; 
@             H   _2 -0.49; H   _1 -0.44; H   _2 -0.44; H      -0.45; 
 -----------------------------------------------------------------------------
  13  Screening settings (-IFTHRS, JTDIIS, DIFDEN, times)  -13   13    T  2.62D+01  2.62D+01
@ 13  -433.643142248       7.27D-06  -2.14D-10    16  10   4   2
      Virial theorem: -V/T =      1.994658
@    MULPOP   C       2.19; C   _1 -0.13; C   _2 -0.13; C   _1  0.59; C   _2  0.59; C       0.30; N      -0.01; O   _1 -0.55; O   _2 -0.55; H   _1 -0.49; 
@             H   _2 -0.49; H   _1 -0.44; H   _2 -0.44; H      -0.45; 
 -----------------------------------------------------------------------------
  14  Screening settings (-IFTHRS, JTDIIS, DIFDEN, times)  -13   14    T  2.60D+01  2.60D+01
@ 14  -433.643142248       3.36D-06  -2.67D-11    16  10   4   2
      Virial theorem: -V/T =      1.994658
@    MULPOP   C       2.19; C   _1 -0.13; C   _2 -0.13; C   _1  0.59; C   _2  0.59; C       0.30; N      -0.01; O   _1 -0.55; O   _2 -0.55; H   _1 -0.49; 
@             H   _2 -0.49; H   _1 -0.44; H   _2 -0.44; H      -0.45; 
 -----------------------------------------------------------------------------
  15  Screening settings (-IFTHRS, JTDIIS, DIFDEN, times)  -13   15    T  2.59D+01  2.59D+01
@ 15  -433.643142248       1.18D-06   1.10D-11    16  10   4   2
      Virial theorem: -V/T =      1.994658
@    MULPOP   C       2.19; C   _1 -0.13; C   _2 -0.13; C   _1  0.59; C   _2  0.59; C       0.30; N      -0.01; O   _1 -0.55; O   _2 -0.55; H   _1 -0.49; 
@             H   _2 -0.49; H   _1 -0.44; H   _2 -0.44; H      -0.45; 
 -----------------------------------------------------------------------------
  16  Screening settings (-IFTHRS, JTDIIS, DIFDEN, times)  -13   16    T  2.59D+01  2.60D+01
@ 16  -433.643142248       5.13D-07  -1.51D-11    16  10   4   2

@ *** DIIS converged in  16 iterations !
@     Converged SCF energy, gradient:   -433.643142248465    5.13D-07
    - total time used in SIRFCK :              0.00 seconds

 --- Writing SIRIFC interface file

 CPU and wall time for SCF :     424.031     424.285


 ----- Output from SIRIUS MP2 module -----

 Reference: H.J.Aa.Jensen, P.Jorgensen, H.Agren, and J.Olsen,
            J. Chem. Phys. 88, 3834 (1988); 89, 5354 (1988)

 Checking that the closed shell orbitals are canonical Hartree-Fock orbitals

    Number of electrons  :   64
    Closed shell orbitals:   16   10    4    2

 Generating Fock matrix

 Hartree-Fock electronic energy:        -854.135145277257
 Hartree-Fock total      energy:        -433.643142248460

 Hartree-Fock orbital energies, symmetry 1 ( A1 ),   16 occupied SCF orbitals

       -20.68973167   -15.65618741   -11.35469819   -11.26416655   -11.25857845
       -11.24762539    -2.11213905    -1.24579931    -1.16948544    -1.04857707
        -0.89782213    -0.81849480    -0.76307942    -0.69258319    -0.63138303
        -0.53313858     0.03315177     0.04565562     0.06350321     0.10859999
         0.12371506     0.14123002     0.15387622     0.15747737     0.16980445
         0.18266653     0.20548387     0.24002541     0.26695735     0.28676992
         0.31946378     0.33235129     0.34349186     0.35867170     0.36333765
         0.39183889     0.40916273     0.42302122     0.45876473     0.47249267
         0.51031542     0.56955844     0.57574502     0.60552774     0.62925885
         0.66761140     0.67588561     0.68205725     0.72129473     0.76092609
         0.78847614     0.83350581     0.89647170     0.90289772     0.95965004
         0.98688128     1.01726095     1.06579082     1.06981221     1.08923026
         1.21341994     1.29153285     1.34132602     1.41803667     1.49979882
         1.53992984     1.55648247     1.59547262     1.61315480     1.63529709
         1.69156128     1.73606967     1.76871346     1.79059646     1.87438485
         1.95955488     1.99189189     2.03424139     2.03963114     2.19902306
         2.23510691     2.29540456     2.34449045     2.40650224     2.44104073
         2.52780033     2.56086267     2.69429914     2.75285394     2.84019922
         2.91689076     2.98488323     3.05652157     3.15113239     3.17270391
         3.31647827     3.49535315     3.88533571     4.17260664     4.21646299
        19.81823777    20.32350253    20.46995400    20.64002698    23.37017267
        23.43724563    23.48341631    23.80756459    23.90957949    24.12914345
        27.37551733    31.77985090    35.70541186    39.46888847    40.01816577

 Hartree-Fock orbital energies, symmetry 2 ( B1 ),   10 occupied SCF orbitals

       -20.68673380   -11.26414018   -11.25859185    -1.11939943    -1.03948895
        -0.85354597    -0.65448653    -0.61019450    -0.54595934    -0.51353027
         0.03905924     0.05756137     0.13329433     0.13743446     0.15246121
         0.16159716     0.18106262     0.20684288     0.25861852     0.29727580
         0.30713568     0.31774740     0.35149377     0.36664376     0.38015173
         0.40312478     0.41515840     0.43345757     0.51463472     0.55993352
         0.58018389     0.63200874     0.65706831     0.68111797     0.69913427
         0.75310111     0.77398286     0.82665298     0.84549810     0.86364132
         0.89218798     0.96997328     1.03415344     1.16893967     1.25469786
         1.31555024     1.35874440     1.39277391     1.47375092     1.50760541
         1.55454845     1.60363873     1.65765241     1.68985132     1.72394740
         1.76871944     1.79007321     1.82364006     1.87228377     1.94612795
         2.05555433     2.14094979     2.17542221     2.31826554     2.33411844
         2.38508994     2.44971689     2.54765352     2.70232481     2.74473200
         2.91055365     2.94496506     3.17381541     3.29844172     3.37896584
         3.43311255     4.05134090     4.56388223     4.96880326    20.29688547
        20.48080256    22.87619030    23.33104533    23.39478230    23.96316148
        24.13243172    24.31888890    31.34237300    36.15813719    40.05861943
        42.09253667

 Hartree-Fock orbital energies, symmetry 3 ( B2 ),    4 occupied SCF orbitals

        -0.97544537    -0.54594792    -0.44071581    -0.30890942     0.10366212
         0.12009281     0.13909897     0.18496469     0.19008274     0.22987058
         0.29835353     0.33990677     0.39069560     0.46868335     0.54717175
         0.59990874     0.67309025     0.71609051     0.79519736     0.87761187
         0.91691255     0.93071640     0.95893811     1.04138355     1.07918659
         1.15653307     1.19559108     1.47912959     1.52703193     1.62847479
         1.68284201     1.71715925     1.85092522     1.94472309     2.09710841
         2.13632048     2.18848347     2.31551106     2.56220966     2.68911906
         3.09014030     3.70438807    22.56528445    22.71312177    22.84199847
        23.04104807    30.76974548    39.41836661

 Hartree-Fock orbital energies, symmetry 4 ( A2 ),    2 occupied SCF orbitals

        -0.36066778    -0.35583100     0.09454802     0.13748314     0.19147195
         0.28560623     0.41918083     0.49557922     0.55207657     0.66047312
         0.74524351     0.89025675     0.90994001     0.94812537     1.04091710
         1.08200680     1.23056002     1.33291862     1.44880350     1.64118708
         1.69218101     1.70299780     1.82671364     1.88464222     2.11467531
         2.18883982     2.36150566     2.54659373     2.63188464     3.89253999
         4.45169438    22.70915058    22.87792480    39.53230699

    E(LUMO) :     0.03315177   (in symmetry 1)
  - E(HOMO) :    -0.30890942   (in symmetry 3)
  --------------------------
    gap     :     0.34206118

---> (Re)generating AOTWOINT


     ************************************************************************
     ************************** Output from HERINT **************************
     ************************************************************************


 Threshold for neglecting two-electron integrals:  1.00D-12
 HERMIT - Number of two-electron integrals written:   198196786 ( 22.9% )
 HERMIT - Megabytes written:                           3025.503

  Time used in TWOINT     is      36.11 seconds

 2-el. integral transformation level 5: Total CPU and WALL times (sec)     382.859     386.020

 MP2 move   0.894547 electrons to unoccupied HF orbitals


@   Hartree-Fock total energy   :          -433.6431422485
@   + MP2 contribution          :            -1.6569837753
@   = MP2 second order energy   :          -435.3001260238

 Natural orbital occupation numbers, symmetry 1 (irrep A1 )
 Sum =    31.99395982; RHF =    32.00000000; Difference =    -0.00604018

         1.99928195     1.99905776     1.99876115     1.99875789     1.99875214
         1.99874866     1.99014836     1.98421861     1.97982654     1.97450014
         1.97150072     1.96958161     1.96632780     1.96289174     1.95605766
         1.94931154     0.03832680     0.02561158     0.02424423     0.02193371
         0.01897329     0.01719326     0.01643404     0.01354562     0.01299226
         0.01224774     0.00997217     0.00888810     0.00837711     0.00768875
         0.00667366     0.00624980     0.00470245     0.00424351     0.00346456
         0.00299283     0.00288446     0.00257658     0.00237046     0.00206793
         0.00169443     0.00155464     0.00140899     0.00127837     0.00122571
         0.00112321     0.00106375     0.00095130     0.00073490     0.00065594
         0.00061765     0.00050988     0.00048600     0.00044554     0.00043055
         0.00041627     0.00039881     0.00037482     0.00035911     0.00035393
         0.00034118     0.00032477     0.00031394     0.00030038     0.00028086
         0.00026107     0.00023328     0.00022422     0.00022084     0.00019747
         0.00019397     0.00018350     0.00017710     0.00017245     0.00016751
         0.00016040     0.00015721     0.00014352     0.00013931     0.00013526
         0.00013244     0.00012106     0.00011850     0.00010540     0.00010118
         0.00009235     0.00007801     0.00006524     0.00005848     0.00005148
         0.00004470     0.00003641     0.00003344     0.00002522     0.00001712
         0.00001480     0.00001415     0.00001241     0.00001064     0.00000950
         0.00000782     0.00000742     0.00000645     0.00000352     0.00000223
         0.00000131     0.00000088     0.00000070     0.00000044     0.00000025
         0.00000015     0.00000007    -0.00000008    -0.00000074    -0.00000431

 Natural orbital occupation numbers, symmetry 2 (irrep B1 )
 Sum =    19.99231703; RHF =    20.00000000; Difference =    -0.00768297

         1.99927292     1.99875752     1.99874989     1.98169251     1.98000950
         1.97258859     1.96088723     1.95558275     1.95429692     1.94424666
         0.04611970     0.02507060     0.02371315     0.01801027     0.01696942
         0.01639908     0.01573256     0.01200006     0.00973721     0.00912555
         0.00825454     0.00562963     0.00532621     0.00356843     0.00319863
         0.00305540     0.00249959     0.00216843     0.00197685     0.00164262
         0.00161293     0.00141339     0.00133175     0.00117602     0.00102406
         0.00099653     0.00068274     0.00064275     0.00054458     0.00045814
         0.00043198     0.00042332     0.00036944     0.00033835     0.00032959
         0.00030258     0.00029436     0.00026379     0.00025376     0.00022318
         0.00020877     0.00019914     0.00018811     0.00018313     0.00018207
         0.00017206     0.00016780     0.00016338     0.00015072     0.00014177
         0.00013601     0.00012844     0.00012313     0.00011796     0.00010253
         0.00010016     0.00009326     0.00007991     0.00005313     0.00004594
         0.00003181     0.00003109     0.00002368     0.00001794     0.00001528
         0.00001365     0.00001234     0.00001079     0.00000952     0.00000897
         0.00000442     0.00000285     0.00000135     0.00000087     0.00000063
         0.00000036     0.00000027     0.00000011    -0.00000005    -0.00000072
        -0.00000120

 Natural orbital occupation numbers, symmetry 3 (irrep B2 )
 Sum =     7.99163570; RHF =     8.00000000; Difference =    -0.00836430

         1.97910656     1.95889192     1.94526708     1.90742420     0.07120350
         0.03161425     0.01506272     0.01342415     0.01071729     0.00967731
         0.00892417     0.00744796     0.00711174     0.00532945     0.00403486
         0.00333930     0.00240942     0.00162018     0.00146545     0.00092039
         0.00089416     0.00070435     0.00056417     0.00052989     0.00047960
         0.00045459     0.00039244     0.00034551     0.00030120     0.00024567
         0.00021401     0.00020191     0.00019222     0.00018234     0.00017271
         0.00013753     0.00012781     0.00011751     0.00009877     0.00009219
         0.00007503     0.00005583     0.00002911     0.00002414     0.00001211
         0.00000709     0.00000179    -0.00000991

 Natural orbital occupation numbers, symmetry 4 (irrep A2 )
 Sum =     4.02208746; RHF =     4.00000000; Difference =     0.02208746

         1.96883142     1.91259483     0.06946246     0.01782901     0.01098863
         0.00967691     0.00733603     0.00576134     0.00435550     0.00373051
         0.00272466     0.00150136     0.00143881     0.00096167     0.00079393
         0.00074199     0.00063045     0.00054098     0.00041814     0.00038442
         0.00031583     0.00023772     0.00019737     0.00018380     0.00014747
         0.00013281     0.00012400     0.00009909     0.00007462     0.00005020
         0.00002211     0.00001955     0.00001059    -0.00023074

 Time used for MP2 natural orbitals :     412.719 CPU seconds,     415.902 wall seconds.

 CPU and wall time for MP2 :     412.719     415.903


        SIRIUS MCSCF optimization (SIROPT)
 ================================================


 Fock matrix screening setting for SIRCNO: IFTHRS =    9


 ----- Output from SIRIUS CI module (CICTL) -----




 2-el. integral transformation level 0: Total CPU and WALL times (sec)      91.016      91.027


 --- SIRCI.CIST1: plus combination of all degenerate
                 configurations is used as start vectors.


 (CIST1) 18 lowest diagonal elements:

 Element no. Config.no.    Active energy      Total energy

         1 :          1    -15.2575109835   -433.6319424669
         2 :          2    -14.9651353706   -433.3395668539
         3 :          6    -14.9651353706   -433.3395668539
         4 :          3    -14.8190231629   -433.1934546462
         5 :         11    -14.8190231629   -433.1934546462
         6 :          7    -14.6581012928   -433.0325327762
         7 :         44    -14.6318706719   -433.0063021553
         8 :         45    -14.5278603796   -432.9022918629
         9 :         49    -14.5278603796   -432.9022918629
        10 :          8    -14.5095610737   -432.8839925571
        11 :         12    -14.5095610737   -432.8839925571
        12 :         50    -14.3960426477   -432.7704741311
        13 :         56    -14.3820665355   -432.7564980189
        14 :         73    -14.2898989119   -432.6643303953
        15 :        109    -14.2898989119   -432.6643303953
        16 :         52    -14.2137258991   -432.5881573824
        17 :         55    -14.2137258991   -432.5881573824
        18 :          4    -14.1920786283   -432.5665101117


 Convergence threshold for CI optimization :     0.00000500



 *** Reached maximum number of CI iterations:    3
              1 CI roots are not converged.


@ Final CI energies and residuals in symmetry 1 (irrep A1 )
@    1     -433.647185566810890       5.32D-02
@    2     -433.285763497005689       3.65D-04
@    3     -433.193247062963167       5.89D-02
@    4     -433.056024587542026       4.96D-02
@    5     -433.027294577916905       3.69D-02
@    6     -432.807157183380639       3.32D-02

   --- OUTPUT FROM SIRCNO     Keyword = FD+NO 


 Occupations of CAS natural orbitals:

 Symmetry  1 ( irrep A1  in C2v )

   1.998323045

 Symmetry  2 ( irrep B1  in C2v )

   0.002226481

 Symmetry  3 ( irrep B2  in C2v )

   1.963612643   1.941281467

 Symmetry  4 ( irrep A2  in C2v )

   1.999452114   1.003331841   1.091772409


 --- MACRO ITERATION  1 ---
 --------------------------

 2-el. integral transformation level 3: Total CPU and WALL times (sec)      91.703      91.711

 Fock matrix screening setting for this macro iteration: 10^( -9)

 Total MCSCF energy       :          -433.285763496125924  (MACRO    1)

 - Nuclear repulsion      :           420.492003028796546
 - Inactive energy        :          -838.866434512023488
 - Active energy          :           -14.911332012898999

 Norm of total gradient   :             0.643252585894
 -    of CI gradient      :             0.000729977173
 -    of orbital gradient :             0.643252171697
      Virial theorem: -V/T =      1.981951
@    MULPOP   C       2.08; C   _1  0.02; C   _2  0.02; C   _1  0.51; C   _2  0.51; C       0.38; N       0.78; O   _1 -0.90; O   _2 -0.90; H   _1 -0.54; 
@             H   _2 -0.54; H   _1 -0.47; H   _2 -0.47; H      -0.49; 

 Residual norm when dim(red L) =  11
 NEO root     CSF        orbital          total
    2     0.06510765     0.02910669     0.07131764 converged

 (NEONEX) NEO vector is converged.

   --- OUTPUT FROM SIRCNO     Keyword = FD+NO 


 Occupations of CAS natural orbitals:

 Symmetry  1 ( irrep A1  in C2v )

   1.998349350

 Symmetry  2 ( irrep B1  in C2v )

   0.002202415

 Symmetry  3 ( irrep B2  in C2v )

   1.962810701   1.942807736

 Symmetry  4 ( irrep A2  in C2v )

   1.999449850   0.967957049   1.126422899


 --- MACRO ITERATION  2 ---
 --------------------------

 2-el. integral transformation level 3: Total CPU and WALL times (sec)      91.953      92.028

 Fock matrix screening setting for this macro iteration: 10^( -9)

 Total MCSCF energy       :          -433.367156090413516  (MACRO    2)

 - Nuclear repulsion      :           420.492003028796546
 - Inactive energy        :          -838.898577171544162
 - Active energy          :           -14.960581947665906

 Norm of total gradient   :             0.156794759692
 -    of CI gradient      :             0.037904203702
 -    of orbital gradient :             0.152144234227
      Virial theorem: -V/T =      1.984977
@    MULPOP   C       2.49; C   _1 -0.26; C   _2 -0.26; C   _1  0.54; C   _2  0.54; C       0.47; N       0.73; O   _1 -0.95; O   _2 -0.95; H   _1 -0.52; 
@             H   _2 -0.52; H   _1 -0.45; H   _2 -0.45; H      -0.43; 

 Residual norm when dim(red L) =   9
 NEO root     CSF        orbital          total
    1     0.08333980     0.02698751     0.08760050 converged

 (NEONEX) NEO auxiliary root no.  1 is converged.

 (SIRNEO) iteration (  2,  6)
 Micro iteration termination criterion met, EVAL(ISTATE+1) = -2.23D-04

   --- OUTPUT FROM SIRCNO     Keyword = FD+NO 


 Occupations of CAS natural orbitals:

 Symmetry  1 ( irrep A1  in C2v )

   1.994024998

 Symmetry  2 ( irrep B1  in C2v )

   0.006486291

 Symmetry  3 ( irrep B2  in C2v )

   1.964322596   1.942939112

 Symmetry  4 ( irrep A2  in C2v )

   1.999490570   0.975531268   1.117205165


 --- MACRO ITERATION  3 ---
 --------------------------

 2-el. integral transformation level 3: Total CPU and WALL times (sec)      92.203      92.225

 Fock matrix screening setting for this macro iteration: 10^( -9)

 Total MCSCF energy       :          -433.374343937026538  (MACRO    3)

 - Nuclear repulsion      :           420.492003028796546
 - Inactive energy        :          -838.583608439709906
 - Active energy          :           -15.282738526113150

 Norm of total gradient   :             0.050194212312
 -    of CI gradient      :             0.047578229317
 -    of orbital gradient :             0.015992843545
      Virial theorem: -V/T =      1.986123
@    MULPOP   C       2.47; C   _1 -0.24; C   _2 -0.24; C   _1  0.53; C   _2  0.53; C       0.44; N       0.73; O   _1 -0.94; O   _2 -0.94; H   _1 -0.51; 
@             H   _2 -0.51; H   _1 -0.44; H   _2 -0.44; H      -0.43; 

 (SIRNEO) iteration (  3,  3)
 Micro iteration termination criterion met, EVAL(ISTATE+1) = -3.48D-03

   --- OUTPUT FROM SIRCNO     Keyword = FD+NO 


 Occupations of CAS natural orbitals:

 Symmetry  1 ( irrep A1  in C2v )

   1.995834070

 Symmetry  2 ( irrep B1  in C2v )

   0.004493063

 Symmetry  3 ( irrep B2  in C2v )

   1.968580139   1.950920850

 Symmetry  4 ( irrep A2  in C2v )

   1.999672848   0.975781177   1.104717854


 --- MACRO ITERATION  4 ---
 --------------------------

 2-el. integral transformation level 3: Total CPU and WALL times (sec)      92.531      92.577

 Fock matrix screening setting for this macro iteration: 10^( -9)

 Total MCSCF energy       :          -433.377391089000639  (MACRO    4)

 - Nuclear repulsion      :           420.492003028796546
 - Inactive energy        :          -838.214880420761801
 - Active energy          :           -15.654513697035409

 Norm of total gradient   :             0.057643789653
 -    of CI gradient      :             0.041395081660
 -    of orbital gradient :             0.040115504484
      Virial theorem: -V/T =      1.980476
@    MULPOP   C       2.45; C   _1 -0.21; C   _2 -0.21; C   _1  0.54; C   _2  0.54; C       0.43; N       1.19; O   _1 -1.19; O   _2 -1.19; H   _1 -0.51; 
@             H   _2 -0.51; H   _1 -0.44; H   _2 -0.44; H      -0.43; 

 Residual norm when dim(red L) =  10
 NEO root     CSF        orbital          total
    1     0.06026687     0.07626464     0.09720284 converged

 (NEONEX) NEO auxiliary root no.  1 is converged.

 Residual norm when dim(red L) =  12
 NEO root     CSF        orbital          total
    2     0.00823112     0.00436014     0.00931462 converged

 (NEONEX) NEO vector is converged.

   --- OUTPUT FROM SIRCNO     Keyword = FD+NO 


 Occupations of CAS natural orbitals:

 Symmetry  1 ( irrep A1  in C2v )

   1.990427518

 Symmetry  2 ( irrep B1  in C2v )

   0.010046195

 Symmetry  3 ( irrep B2  in C2v )

   1.967530867   1.943851194

 Symmetry  4 ( irrep A2  in C2v )

   1.999520412   0.983100295   1.105523519


 --- MACRO ITERATION  5 ---
 --------------------------

 2-el. integral transformation level 3: Total CPU and WALL times (sec)      92.078      92.074

 Fock matrix screening setting for this macro iteration: 10^( -9)

 Total MCSCF energy       :          -433.382860315605456  (MACRO    5)

 - Nuclear repulsion      :           420.492003028796546
 - Inactive energy        :          -837.428527499161532
 - Active energy          :           -16.446335845240455

 Norm of total gradient   :             0.077694528327
 -    of CI gradient      :             0.076067981420
 -    of orbital gradient :             0.015814611429
      Virial theorem: -V/T =      1.972560
@    MULPOP   C       2.54; C   _1 -0.21; C   _2 -0.21; C   _1  0.53; C   _2  0.53; C       0.43; N       1.41; O   _1 -1.35; O   _2 -1.35; H   _1 -0.50; 
@             H   _2 -0.50; H   _1 -0.44; H   _2 -0.44; H      -0.43; 

 Residual norm when dim(red L) =   8
 NEO root     CSF        orbital          total
    1     0.05833118     0.07559861     0.09548652 converged

 (NEONEX) NEO auxiliary root no.  1 is converged.

 Residual norm when dim(red L) =   9
 NEO root     CSF        orbital          total
    2     0.01209916     0.00455516     0.01292823 converged

 (NEONEX) NEO vector is converged.

   --- OUTPUT FROM SIRCNO     Keyword = FD+NO 


 Occupations of CAS natural orbitals:

 Symmetry  1 ( irrep A1  in C2v )

   1.993135504

 Symmetry  2 ( irrep B1  in C2v )

   0.007195039

 Symmetry  3 ( irrep B2  in C2v )

   1.970960402   1.950072220

 Symmetry  4 ( irrep A2  in C2v )

   1.999665399   0.980129811   1.098841625


 --- MACRO ITERATION  6 ---
 --------------------------

 2-el. integral transformation level 3: Total CPU and WALL times (sec)      91.875      91.917

 Fock matrix screening setting for this macro iteration: 10^( -9)

 Total MCSCF energy       :          -433.385299579222078  (MACRO    6)

 - Nuclear repulsion      :           420.492003028796546
 - Inactive energy        :          -836.864895331568277
 - Active energy          :           -17.012407276450318

 Norm of total gradient   :             0.024015413798
 -    of CI gradient      :             0.020865369502
 -    of orbital gradient :             0.011890183154
      Virial theorem: -V/T =      1.966057
@    MULPOP   C       2.50; C   _1 -0.20; C   _2 -0.20; C   _1  0.53; C   _2  0.53; C       0.43; N       1.58; O   _1 -1.43; O   _2 -1.43; H   _1 -0.50; 
@             H   _2 -0.50; H   _1 -0.44; H   _2 -0.44; H      -0.43; 

 Residual norm when dim(red L) =  10
 NEO root     CSF        orbital          total
    1     0.06741219     0.02399915     0.07155671 converged

 (NEONEX) NEO auxiliary root no.  1 is converged.

 Residual norm when dim(red L) =  18
 NEO root     CSF        orbital          total
    2     0.00054638     0.00026322     0.00060648 converged

 (NEONEX) NEO vector is converged.

   --- OUTPUT FROM SIRCNO     Keyword = FD+NO 


 Occupations of CAS natural orbitals:

 Symmetry  1 ( irrep A1  in C2v )

   1.993502262

 Symmetry  2 ( irrep B1  in C2v )

   0.006818159

 Symmetry  3 ( irrep B2  in C2v )

   1.969294287   1.943587376

 Symmetry  4 ( irrep A2  in C2v )

   1.999676171   0.990842210   1.096279536

 Local region, DONR activated


 --- MACRO ITERATION  7 ---
 --------------------------

 2-el. integral transformation level 3: Total CPU and WALL times (sec)      92.547      92.612

 Fock matrix screening setting for this macro iteration: 10^( -9)

 Total MCSCF energy       :          -433.385430599736253  (MACRO    7)

 - Nuclear repulsion      :           420.492003028796546
 - Inactive energy        :          -836.909668979093112
 - Active energy          :           -16.967764649439662

 Norm of total gradient   :             0.001335608972
 -    of CI gradient      :             0.001292440389
 -    of orbital gradient :             0.000336822160
      Virial theorem: -V/T =      1.966158
@    MULPOP   C       2.50; C   _1 -0.20; C   _2 -0.20; C   _1  0.53; C   _2  0.53; C       0.43; N       1.57; O   _1 -1.42; O   _2 -1.42; H   _1 -0.50; 
@             H   _2 -0.50; H   _1 -0.44; H   _2 -0.44; H      -0.43; 

 ***WARNING from SNRST:    2 negative elements of CI diagonal

 Dimension    CSF residual   orb. residual  total residual   conv. thresh.
        17      3.2236D-06      2.6370D-06      4.1647D-06      7.0000D-06

 *** Newton-Raphson eq.s converged

   --- OUTPUT FROM SIRCNO     Keyword = FD+NO 


 Occupations of CAS natural orbitals:

 Symmetry  1 ( irrep A1  in C2v )

   1.993530414

 Symmetry  2 ( irrep B1  in C2v )

   0.006789843

 Symmetry  3 ( irrep B2  in C2v )

   1.969233309   1.943706128

 Symmetry  4 ( irrep A2  in C2v )

   1.999676332   0.991553366   1.095510608

 Local region, DONR activated


 --- MACRO ITERATION  8 ---
 --------------------------

 2-el. integral transformation level 3: Total CPU and WALL times (sec)      92.891      92.988

 Fock matrix screening setting for this macro iteration: 10^( -9)

 Total MCSCF energy       :          -433.385430927802076  (MACRO    8)

 - Nuclear repulsion      :           420.492003028796546
 - Inactive energy        :          -836.912496470848623
 - Active energy          :           -16.964937485750024

 Norm of total gradient   :             0.000004840094
 -    of CI gradient      :             0.000003977037
 -    of orbital gradient :             0.000002758566
      Virial theorem: -V/T =      1.966163
@    MULPOP   C       2.50; C   _1 -0.20; C   _2 -0.20; C   _1  0.53; C   _2  0.53; C       0.43; N       1.57; O   _1 -1.42; O   _2 -1.42; H   _1 -0.50; 
@             H   _2 -0.50; H   _1 -0.44; H   _2 -0.44; H      -0.43; 

 *** Optimization control: MCSCF converged ***
     Number of macro iterations used            8
     Number of micro iterations used           53
     Total number of CPU seconds used      2900.33

 CPU and wall time for MCSCF :    2900.328    2901.515


                     .----------------------------------------.
                     | --- SIRIUS OPTIMIZATION STATISTICS --- |
                     `----------------------------------------'


 
     Date and time (Linux)  : Fri Jan 17 14:38:57 2020
     Host name              : Lab2-333-NPs                            


  ITER ITMIC     EMCSCF           GRDNRM        RATIO      STPLNG
 ---------------------------------------------------------------------
    1    5   -433.285763496126   0.6432525859  0.000000   0.7217270122
    2    6   -433.367156090414   0.1567947597  0.674829   0.5438955815
    3    3   -433.374343937027   0.0501942123  0.834016   0.6763171590
    4    6   -433.377391089001   0.0576437897  0.880246   0.7041103588
    5    4   -433.382860315605   0.0776945283  0.622860   0.6218495549
    6   12   -433.385299579222   0.0240154138  0.876865   0.0546642354
    7   17   -433.385430599736   0.0013356090  1.018203   0.0022573329
    8    0   -433.385430927802   0.0000048401  1.005511   0.0000000000


  ITER  INDGCM  GCIMAX      GCINRM     INDGOM  GOBMAX      GOBNRM      GRDNRM
 ------------------------------------------------------------------------------
    1     99    0.000345    0.000730   2745    0.146577    0.643252    0.643253
    2     50   -0.024988    0.037904   2733    0.043243    0.152144    0.156795
    3     32   -0.032138    0.047578   2733    0.003349    0.015993    0.050194
    4     26    0.025781    0.041395   1608    0.008523    0.040116    0.057644
    5     26    0.053720    0.076068   1580   -0.004197    0.015815    0.077695
    6     32   -0.014528    0.020865   1584    0.003266    0.011890    0.024015
    7     32   -0.000859    0.001292   1608   -0.000076    0.000337    0.001336
    8     26    0.000002    0.000004   2317    0.000001    0.000003    0.000005


  ITER ITMIC NCLIN NOLIN   TIMMAC    TIMITR    TIMMIC    TIMLIN    TIMMIC/ITMIC
 ------------------------------------------------------------------------------

    1     5     3     7    310.94     91.70    190.75    162.17     38.15
    2     6     2     8    337.73     91.95    217.31    188.73     36.22
    3     3     2     5    251.20     92.20    130.56    101.98     43.52
    4     6     5     6    334.78     92.53    213.70    185.19     35.62
    5     4     2     6    279.55     92.08    159.05    130.50     39.76
    6    12     8     9    500.08     91.88    379.78    351.25     31.65
    7    17     8     9    618.92     92.55    497.91    469.33     29.29
    8     0     0     0    121.36     92.89      0.00      0.00


 ITER         EMY                 EACTIV              EMCSCF

[...]
      ----------------------------------------------------------------
         1    3.26391D+02  5.18D+01  3.22D+02  9.79D+04    0.00000D+00

 ** RSPCTL MICROITERATION NUMBER   14

 *** INFO, negative eigenvalues in reduced matrix. Symmetry  4,  triplet       F Dimension of reduced matrix =    30

 GP * SOLUTION vector at frequency     0.00000 a.u.
 after   15 linear transformations is      6.04020192D+07
 INERTIA (POS,ZER,NEG) of reduced matrix is   28    0    2
 Determinant of reduced matrix is  1.49 * 10 **-23.0

       No.  Residual tot.,    conf., and orb.    Bnorm      Frequency 
      ----------------------------------------------------------------
         1    2.04786D+02  5.31D+01  1.98D+02  9.82D+04    0.00000D+00

 ** RSPCTL MICROITERATION NUMBER   15

 *** INFO, negative eigenvalues in reduced matrix. Symmetry  4,  triplet       F Dimension of reduced matrix =    32

 GP * SOLUTION vector at frequency     0.00000 a.u.
 after   16 linear transformations is      6.04688846D+07
 INERTIA (POS,ZER,NEG) of reduced matrix is   30    0    2
 Determinant of reduced matrix is  4.97 * 10 **-25.0

       No.  Residual tot.,    conf., and orb.    Bnorm      Frequency 
      ----------------------------------------------------------------
         1    1.44747D+02  5.42D+01  1.34D+02  9.83D+04    0.00000D+00

 ** RSPCTL MICROITERATION NUMBER   16

 *** INFO, negative eigenvalues in reduced matrix. Symmetry  4,  triplet       F Dimension of reduced matrix =    34

 GP * SOLUTION vector at frequency     0.00000 a.u.
 after   17 linear transformations is      6.04895590D+07
 INERTIA (POS,ZER,NEG) of reduced matrix is   32    0    2
 Determinant of reduced matrix is  2.89 * 10 **-26.0

       No.  Residual tot.,    conf., and orb.    Bnorm      Frequency 
      ----------------------------------------------------------------
         1    9.08066D+01  5.59D+01  7.16D+01  9.84D+04    0.00000D+00

 *** THE REQUESTED    1 SOLUTION VECTORS CONVERGED

 Convergence of RSP solution vectors, threshold = 1.00D-03
 ---------------------------------------------------------------
 (dimension of paired reduced space:   34)
 RSP solution vector no.    1; norm of residual   9.23D-04

 *** RSPCTL MICROITERATIONS CONVERGED
    XDIPLEN     YDIPLEN      freq1     freq2                Norm
 ---------------------------------------------------------------
                          0.058400 -0.058400      98373.57013513


 Perturbation symmetry.     KSYMOP:       1
 Perturbation spin symmetry.TRPLET:       F
 Orbital variables.         KZWOPT:    2762
 Configuration variables.   KZCONF:     115
 Total number of variables. KZVAR :    2877


 CRLRV2 -- linear response calc for sym:  1
 CRLRV2 -- operator label1: YDIPLEN 
 CRLRV2 -- operator label2: YDIPLEN 
 CRLRV2 -- freqr1 :   5.840000D-02
 CRLRV2 -- freqr2 :   5.840000D-02



 ---  SOLVING SETS OF LINEAR EQUATIONS FOR LINEAR RESPONSE PROPERTIES ---

 Operator symmetry = 1  ( A1 ); triplet =   F


 ** RSPCTL MICROITERATION NUMBER    1

       No.  Residual tot.,    conf., and orb.    Bnorm      Frequency 
      ----------------------------------------------------------------
         1    2.52103D+02  2.45D+01  2.51D+02  9.95D+02    1.16800D-01

 ** RSPCTL MICROITERATION NUMBER    2

       No.  Residual tot.,    conf., and orb.    Bnorm      Frequency 
      ----------------------------------------------------------------
         1    9.13387D+02  1.66D+02  8.98D+02  6.48D+03    1.16800D-01

 ** RSPCTL MICROITERATION NUMBER    3

       No.  Residual tot.,    conf., and orb.    Bnorm      Frequency 
      ----------------------------------------------------------------
         1    7.33298D+03  2.97D+03  6.70D+03  1.15D+05    1.16800D-01

 ** RSPCTL MICROITERATION NUMBER    4

 *** INFO, negative eigenvalues in reduced matrix. Symmetry  1,  triplet       F Dimension of reduced matrix =    10

 GP * SOLUTION vector at frequency     0.11680 a.u.
 after    5 linear transformations is     -1.11657378D+06
 INERTIA (POS,ZER,NEG) of reduced matrix is    9    0    1
 Determinant of reduced matrix is -1.24 * 10 ** -6.0

       No.  Residual tot.,    conf., and orb.    Bnorm      Frequency 
      ----------------------------------------------------------------
         1    1.66803D+03  3.64D+02  1.63D+03  1.45D+04    1.16800D-01

 ** RSPCTL MICROITERATION NUMBER    5

 *** INFO, negative eigenvalues in reduced matrix. Symmetry  1,  triplet       F Dimension of reduced matrix =    12

 GP * SOLUTION vector at frequency     0.11680 a.u.
 after    6 linear transformations is      9.96470340D+05
 INERTIA (POS,ZER,NEG) of reduced matrix is   11    0    1
 Determinant of reduced matrix is -5.56 * 10 ** -7.0

       No.  Residual tot.,    conf., and orb.    Bnorm      Frequency 
      ----------------------------------------------------------------
         1    1.17784D+03  3.19D+02  1.13D+03  1.14D+04    1.16800D-01

 ** RSPCTL MICROITERATION NUMBER    6

 *** INFO, negative eigenvalues in reduced matrix. Symmetry  1,  triplet       F Dimension of reduced matrix =    14

 GP * SOLUTION vector at frequency     0.11680 a.u.
 after    7 linear transformations is      1.92597430D+06
 INERTIA (POS,ZER,NEG) of reduced matrix is   13    0    1
 Determinant of reduced matrix is -2.12 * 10 ** -7.0

       No.  Residual tot.,    conf., and orb.    Bnorm      Frequency 
      ----------------------------------------------------------------
         1    8.73630D+02  5.92D+02  6.42D+02  2.14D+04    1.16800D-01

 ** RSPCTL MICROITERATION NUMBER    7

 *** INFO, negative eigenvalues in reduced matrix. Symmetry  1,  triplet       F Dimension of reduced matrix =    16

 GP * SOLUTION vector at frequency     0.11680 a.u.
 after    8 linear transformations is      2.09286875D+06
 INERTIA (POS,ZER,NEG) of reduced matrix is   15    0    1
 Determinant of reduced matrix is -8.48 * 10 ** -8.0

       No.  Residual tot.,    conf., and orb.    Bnorm      Frequency 
      ----------------------------------------------------------------
         1    7.01287D+02  6.60D+02  2.37D+02  2.33D+04    1.16800D-01

 ** RSPCTL MICROITERATION NUMBER    8

 *** INFO, negative eigenvalues in reduced matrix. Symmetry  1,  triplet       F Dimension of reduced matrix =    18

 GP * SOLUTION vector at frequency     0.11680 a.u.
 after    9 linear transformations is      2.35218288D+06
 INERTIA (POS,ZER,NEG) of reduced matrix is   17    0    1
 Determinant of reduced matrix is -4.29 * 10 ** -9.0

       No.  Residual tot.,    conf., and orb.    Bnorm      Frequency 
      ----------------------------------------------------------------
         1    7.68300D+02  7.07D+02  3.01D+02  2.61D+04    1.16800D-01

 ** RSPCTL MICROITERATION NUMBER    9

 *** INFO, negative eigenvalues in reduced matrix. Symmetry  1,  triplet       F Dimension of reduced matrix =    20

 GP * SOLUTION vector at frequency     0.11680 a.u.
 after   10 linear transformations is      2.18727830D+06
 INERTIA (POS,ZER,NEG) of reduced matrix is   18    0    2
 Determinant of reduced matrix is  9.07 * 10 **-11.0

       No.  Residual tot.,    conf., and orb.    Bnorm      Frequency 
      ----------------------------------------------------------------
         1    4.31666D+02  1.85D+02  3.90D+02  2.43D+04    1.16800D-01

 ** RSPCTL MICROITERATION NUMBER   10

 *** INFO, negative eigenvalues in reduced matrix. Symmetry  1,  triplet       F Dimension of reduced matrix =    22

 GP * SOLUTION vector at frequency     0.11680 a.u.
 after   11 linear transformations is      2.26298642D+06
 INERTIA (POS,ZER,NEG) of reduced matrix is   20    0    2
 Determinant of reduced matrix is  5.13 * 10 **-11.0

       No.  Residual tot.,    conf., and orb.    Bnorm      Frequency 
      ----------------------------------------------------------------
         1    2.61213D+02  2.30D+02  1.23D+02  2.52D+04    1.16800D-01

 ** RSPCTL MICROITERATION NUMBER   11

 *** INFO, negative eigenvalues in reduced matrix. Symmetry  1,  triplet       F Dimension of reduced matrix =    24

 GP * SOLUTION vector at frequency     0.11680 a.u.
 after   12 linear transformations is      2.26475665D+06
 INERTIA (POS,ZER,NEG) of reduced matrix is   22    0    2
 Determinant of reduced matrix is  5.00 * 10 **-13.0

       No.  Residual tot.,    conf., and orb.    Bnorm      Frequency 
      ----------------------------------------------------------------
         1    1.49110D+02  8.95D+01  1.19D+02  2.52D+04    1.16800D-01

 ** RSPCTL MICROITERATION NUMBER   12

 *** INFO, negative eigenvalues in reduced matrix. Symmetry  1,  triplet       F Dimension of reduced matrix =    26

 GP * SOLUTION vector at frequency     0.11680 a.u.
 after   13 linear transformations is      2.27449001D+06
 INERTIA (POS,ZER,NEG) of reduced matrix is   24    0    2
 Determinant of reduced matrix is  9.08 * 10 **-14.0

       No.  Residual tot.,    conf., and orb.    Bnorm      Frequency 
      ----------------------------------------------------------------
         1    1.38384D+02  1.29D+02  5.00D+01  2.53D+04    1.16800D-01

 ** RSPCTL MICROITERATION NUMBER   13

 *** INFO, negative eigenvalues in reduced matrix. Symmetry  1,  triplet       F Dimension of reduced matrix =    28

 GP * SOLUTION vector at frequency     0.11680 a.u.
 after   14 linear transformations is      2.27395654D+06
 INERTIA (POS,ZER,NEG) of reduced matrix is   25    0    3
 Determinant of reduced matrix is -9.18 * 10 **-15.0

       No.  Residual tot.,    conf., and orb.    Bnorm      Frequency 
      ----------------------------------------------------------------
         1    2.00803D+02  1.90D+02  6.45D+01  2.53D+04    1.16800D-01

 ** RSPCTL MICROITERATION NUMBER   14

 *** INFO, negative eigenvalues in reduced matrix. Symmetry  1,  triplet       F Dimension of reduced matrix =    30

 GP * SOLUTION vector at frequency     0.11680 a.u.
 after   15 linear transformations is      2.27620349D+06
 INERTIA (POS,ZER,NEG) of reduced matrix is   27    0    3
 Determinant of reduced matrix is -1.63 * 10 **-12.0

       No.  Residual tot.,    conf., and orb.    Bnorm      Frequency 
      ----------------------------------------------------------------
         1    7.12852D+01  4.97D+01  5.11D+01  2.53D+04    1.16800D-01

 ** RSPCTL MICROITERATION NUMBER   15

 *** INFO, negative eigenvalues in reduced matrix. Symmetry  1,  triplet       F Dimension of reduced matrix =    32

 GP * SOLUTION vector at frequency     0.11680 a.u.
 after   16 linear transformations is      2.27797086D+06
 INERTIA (POS,ZER,NEG) of reduced matrix is   29    0    3
 Determinant of reduced matrix is -3.01 * 10 **-13.0

       No.  Residual tot.,    conf., and orb.    Bnorm      Frequency 
      ----------------------------------------------------------------
         1    6.90711D+01  6.42D+01  2.54D+01  2.53D+04    1.16800D-01

 ** RSPCTL MICROITERATION NUMBER   16

 *** INFO, negative eigenvalues in reduced matrix. Symmetry  1,  triplet       F Dimension of reduced matrix =    34

 GP * SOLUTION vector at frequency     0.11680 a.u.
 after   17 linear transformations is      2.28168887D+06
 INERTIA (POS,ZER,NEG) of reduced matrix is   31    0    3
 Determinant of reduced matrix is -7.89 * 10 **-13.0

       No.  Residual tot.,    conf., and orb.    Bnorm      Frequency 
      ----------------------------------------------------------------
         1    6.39549D+01  1.68D+01  6.17D+01  2.54D+04    1.16800D-01

 ** RSPCTL MICROITERATION NUMBER   17

 *** INFO, negative eigenvalues in reduced matrix. Symmetry  1,  triplet       F Dimension of reduced matrix =    36

 GP * SOLUTION vector at frequency     0.11680 a.u.
 after   18 linear transformations is      2.28584975D+06
 INERTIA (POS,ZER,NEG) of reduced matrix is   33    0    3
 Determinant of reduced matrix is -2.44 * 10 **-14.0

       No.  Residual tot.,    conf., and orb.    Bnorm      Frequency 
      ----------------------------------------------------------------
         1    9.51640D+01  6.90D+01  6.56D+01  2.54D+04    1.16800D-01

 ** RSPCTL MICROITERATION NUMBER   18

 *** INFO, negative eigenvalues in reduced matrix. Symmetry  1,  triplet       F Dimension of reduced matrix =    38

 GP * SOLUTION vector at frequency     0.11680 a.u.
 after   19 linear transformations is      2.28415246D+06
 INERTIA (POS,ZER,NEG) of reduced matrix is   34    0    4
 Determinant of reduced matrix is  1.74 * 10 **-14.0

       No.  Residual tot.,    conf., and orb.    Bnorm      Frequency 
      ----------------------------------------------------------------
         1    4.68077D+01  1.23D+01  4.52D+01  2.54D+04    1.16800D-01

 ** RSPCTL MICROITERATION NUMBER   19

 *** INFO, negative eigenvalues in reduced matrix. Symmetry  1,  triplet       F Dimension of reduced matrix =    40

 GP * SOLUTION vector at frequency     0.11680 a.u.
 after   20 linear transformations is      2.28579280D+06
 INERTIA (POS,ZER,NEG) of reduced matrix is   36    0    4
 Determinant of reduced matrix is  1.93 * 10 **-15.0

       No.  Residual tot.,    conf., and orb.    Bnorm      Frequency 
      ----------------------------------------------------------------
         1    2.93997D+01  1.69D+01  2.41D+01  2.54D+04    1.16800D-01

 ** RSPCTL MICROITERATION NUMBER   20

 *** INFO, negative eigenvalues in reduced matrix. Symmetry  1,  triplet       F Dimension of reduced matrix =    42

 GP * SOLUTION vector at frequency     0.11680 a.u.
 after   21 linear transformations is      2.28618795D+06
 INERTIA (POS,ZER,NEG) of reduced matrix is   38    0    4
 Determinant of reduced matrix is  8.13 * 10 **-16.0

       No.  Residual tot.,    conf., and orb.    Bnorm      Frequency 
      ----------------------------------------------------------------
         1    2.25737D+01  1.88D+01  1.26D+01  2.54D+04    1.16800D-01

 *** THE REQUESTED    1 SOLUTION VECTORS CONVERGED

 Convergence of RSP solution vectors, threshold = 1.00D-03
 ---------------------------------------------------------------
 (dimension of paired reduced space:   42)
 RSP solution vector no.    1; norm of residual   8.88D-04

 *** RSPCTL MICROITERATIONS CONVERGED
    YDIPLEN     YDIPLEN      freq1     freq2                Norm
 ---------------------------------------------------------------
                          0.058400  0.058400      25419.51471626
  Time used in CRVEC2     is       3 hours 15 minutes 19 seconds


 ----- CALCULATING CONTRIBUTIONS TO SECOND HYPERPOLARIZABILITY -----


   Contribution                Term         Accumulated
 ------------------------------------------------------
 Na T[4] Nb Nc Nd  5251986.82121069    5251986.82121069
 Na T[3] Nx Nyz    7595789.76828211   12847776.58949280
 Na X[3] Ny Nz     3087060.89115300   15934837.48064580
 Nx A[3] Ny Nz     1029020.29705100   16963857.77769680
 Na X[2] Nyz     -17620171.59712888    -656313.81943209
 Nx A[2] Nyz     -17606327.72921144  -18262641.54864353

@ Cubic response function value in a.u. for
@ A operator, symmetry, frequency:   ZDIPLEN    1 -0.058400
@ B operator, symmetry, frequency:   ZDIPLEN    1  0.058400
@ C operator, symmetry, frequency:   ZDIPLEN    1 -0.058400
@ D operator, symmetry, frequency:   ZDIPLEN    1  0.058400

@ << A; B, C, D >>  =   -18262641.54864353



   Contribution                Term         Accumulated
 ------------------------------------------------------
 Na T[4] Nb Nc Nd 72908580.98722468   72908580.98722468
 Na T[3] Nx Nyz -119203575.88630375  -46294994.89907908
 Na X[3] Ny Nz    60932139.40011606   14637144.50103697
 Nx A[3] Ny Nz     1895433.22702557   16532577.72806254
 Na X[2] Nyz     -42453983.99357890  -25921406.26551636
 Nx A[2] Nyz     -45027953.69801261  -70949359.96352898

@ Cubic response function value in a.u. for
@ A operator, symmetry, frequency:   XDIPLEN    2 -0.058400
@ B operator, symmetry, frequency:   XDIPLEN    2  0.058400
@ C operator, symmetry, frequency:   ZDIPLEN    1 -0.058400
@ D operator, symmetry, frequency:   ZDIPLEN    1  0.058400

@ << A; B, C, D >>  =   -70949359.96352898



   Contribution                Term         Accumulated
 ------------------------------------------------------
 Na T[4] Nb Nc Nd   207062.89727498     207062.89727498
 Na T[3] Nx Nyz    4561626.60180694    4768689.49908192
 Na X[3] Ny Nz      179294.39909573    4947983.89817765
 Nx A[3] Ny Nz       14018.68225859    4962002.58043624
 Na X[2] Nyz     -11275807.68771031   -6313805.10727407
 Nx A[2] Nyz     -30712162.21232160  -37025967.31959567

@ Cubic response function value in a.u. for
@ A operator, symmetry, frequency:   YDIPLEN    3 -0.058400
@ B operator, symmetry, frequency:   YDIPLEN    3  0.058400
@ C operator, symmetry, frequency:   ZDIPLEN    1 -0.058400
@ D operator, symmetry, frequency:   ZDIPLEN    1  0.058400

@ << A; B, C, D >>  =   -37025967.31959567



   Contribution                Term         Accumulated
 ------------------------------------------------------
 Na T[4] Nb Nc Nd  3336341.69974793    3336341.69974793
 Na T[3] Nx Nyz -103164698.03470828  -99828356.33496034
 Na X[3] Ny Nz     7788883.78237251  -92039472.55258784
 Nx A[3] Ny Nz      458160.03725327  -91581312.51533456
 Na X[2] Nyz    -127544647.95849870 -219125960.47383326
 Nx A[2] Nyz     -88795898.60233271 -307921859.07616597

@ Cubic response function value in a.u. for
@ A operator, symmetry, frequency:   XDIPLEN    2 -0.058400
@ B operator, symmetry, frequency:   ZDIPLEN    1  0.058400
@ C operator, symmetry, frequency:   XDIPLEN    2 -0.058400
@ D operator, symmetry, frequency:   ZDIPLEN    1  0.058400

@ << A; B, C, D >>  =  -307921859.07616597



   Contribution                Term         Accumulated
 ------------------------------------------------------
 Na T[4] Nb Nc Nd   -53515.60683069     -53515.60683069
 Na T[3] Nx Nyz   -6626350.19605920   -6679865.80288989
 Na X[3] Ny Nz      -92116.36092767   -6771982.16381757
 Nx A[3] Ny Nz      -20421.40666436   -6792403.57048192
 Na X[2] Nyz      44304319.64814437   37511916.07766245
 Nx A[2] Nyz      15747433.10895205   53259349.18661450

@ Cubic response function value in a.u. for
@ A operator, symmetry, frequency:   YDIPLEN    3 -0.058400
@ B operator, symmetry, frequency:   ZDIPLEN    1  0.058400
@ C operator, symmetry, frequency:   YDIPLEN    3 -0.058400
@ D operator, symmetry, frequency:   ZDIPLEN    1  0.058400

@ << A; B, C, D >>  =    53259349.18661450



   Contribution                Term         Accumulated
 ------------------------------------------------------
 Na T[4] Nb Nc Nd  1022765.62212712    1022765.62212712
 Na T[3] Nx Nyz  208804682.10742682  209827447.72955394
 Na X[3] Ny Nz     5588822.18585803  215416269.91541198
 Nx A[3] Ny Nz     4001075.28549025  219417345.20090219
 Na X[2] Nyz    -243646108.02946976  -24228762.82856756
 Nx A[2] Nyz    -284190928.52013111 -308419691.34869868

@ Cubic response function value in a.u. for
@ A operator, symmetry, frequency:   ZDIPLEN    1 -0.058400
@ B operator, symmetry, frequency:   XDIPLEN    2  0.058400
@ C operator, symmetry, frequency:   ZDIPLEN    1 -0.058400
@ D operator, symmetry, frequency:   XDIPLEN    2  0.058400

@ << A; B, C, D >>  =  -308419691.34869868



   Contribution                Term         Accumulated
 ------------------------------------------------------
 Na T[4] Nb Nc Nd****************** 4626547900.50924301
 Na T[3] Nx Nyz********************-8637160011.05290604
 Na X[3] Ny Nz   719003160.60127544-7918156850.45163059
 Nx A[3] Ny Nz   239667720.20042554-7678489130.25120544
 Na X[2] Nyz   -1168499125.48139858-8846988255.73260307
 Nx A[2] Nyz   -1174126337.88342595********************

@ Cubic response function value in a.u. for
@ A operator, symmetry, frequency:   XDIPLEN    2 -0.058400
@ B operator, symmetry, frequency:   XDIPLEN    2  0.058400
@ C operator, symmetry, frequency:   XDIPLEN    2 -0.058400
@ D operator, symmetry, frequency:   XDIPLEN    2  0.058400

@ << A; B, C, D >>  = ********************

