

     ************************************************************************
     *************** Dalton - An Electronic Structure Program ***************
     ************************************************************************

    This is output from DALTON release Dalton2018.1 (2019)
         ( Web site: http://daltonprogram.org )

   ----------------------------------------------------------------------------

    NOTE:
     
    Dalton is an experimental code for the evaluation of molecular
    properties using (MC)SCF, DFT, CI, and CC wave functions.
    The authors accept no responsibility for the performance of
    the code or for the correctness of the results.
     
    The code (in whole or part) is provided under a licence and
    is not to be reproduced for further distribution without
    the written permission of the authors or their representatives.
     
    See the home page "http://daltonprogram.org" for further information.
     
    If results obtained with this code are published,
    the appropriate citations would be both of:
     
       K. Aidas, C. Angeli, K. L. Bak, V. Bakken, R. Bast,
       L. Boman, O. Christiansen, R. Cimiraglia, S. Coriani,
       P. Dahle, E. K. Dalskov, U. Ekstroem,
       T. Enevoldsen, J. J. Eriksen, P. Ettenhuber, B. Fernandez,
       L. Ferrighi, H. Fliegl, L. Frediani, K. Hald, A. Halkier,
       C. Haettig, H. Heiberg, T. Helgaker, A. C. Hennum,
       H. Hettema, E. Hjertenaes, S. Hoest, I.-M. Hoeyvik,
       M. F. Iozzi, B. Jansik, H. J. Aa. Jensen, D. Jonsson,
       P. Joergensen, J. Kauczor, S. Kirpekar,
       T. Kjaergaard, W. Klopper, S. Knecht, R. Kobayashi, H. Koch,
       J. Kongsted, A. Krapp, K. Kristensen, A. Ligabue,
       O. B. Lutnaes, J. I. Melo, K. V. Mikkelsen, R. H. Myhre,
       C. Neiss, C. B. Nielsen, P. Norman, J. Olsen,
       J. M. H. Olsen, A. Osted, M. J. Packer, F. Pawlowski,
       T. B. Pedersen, P. F. Provasi, S. Reine, Z. Rinkevicius,
       T. A. Ruden, K. Ruud, V. Rybkin, P. Salek, C. C. M. Samson,
       A. Sanchez de Meras, T. Saue, S. P. A. Sauer,
       B. Schimmelpfennig, K. Sneskov, A. H. Steindal,
       K. O. Sylvester-Hvid, P. R. Taylor, A. M. Teale,
       E. I. Tellgren, D. P. Tew, A. J. Thorvaldsen, L. Thoegersen,
       O. Vahtras, M. A. Watson, D. J. D. Wilson, M. Ziolkowski
       and H. Agren,
       "The Dalton quantum chemistry program system",
       WIREs Comput. Mol. Sci. 2014, 4:269–284 (doi: 10.1002/wcms.1172)
     
    and
     
       Dalton, a molecular electronic structure program,
       Release Dalton2018.1 (2019), see http://daltonprogram.org
   ----------------------------------------------------------------------------

    Authors in alphabetical order (major contribution(s) in parenthesis):

  Kestutis Aidas,           Vilnius University,           Lithuania   (QM/MM)
  Celestino Angeli,         University of Ferrara,        Italy       (NEVPT2)
  Keld L. Bak,              UNI-C,                        Denmark     (AOSOPPA, non-adiabatic coupling, magnetic properties)
  Vebjoern Bakken,          University of Oslo,           Norway      (DALTON; geometry optimizer, symmetry detection)
  Radovan Bast,             UiT The Arctic U. of Norway,  Norway      (DALTON installation and execution frameworks)
  Pablo Baudin,             University of Valencia,       Spain       (Cholesky excitation energies)
  Linus Boman,              NTNU,                         Norway      (Cholesky decomposition and subsystems)
  Ove Christiansen,         Aarhus University,            Denmark     (CC module)
  Renzo Cimiraglia,         University of Ferrara,        Italy       (NEVPT2)
  Sonia Coriani,            Technical Univ. of Denmark,   Denmark     (CC module, MCD in RESPONS)
  Janusz Cukras,            University of Trieste,        Italy       (MChD in RESPONS)
  Paal Dahle,               University of Oslo,           Norway      (Parallelization)
  Erik K. Dalskov,          UNI-C,                        Denmark     (SOPPA)
  Thomas Enevoldsen,        Univ. of Southern Denmark,    Denmark     (SOPPA)
  Janus J. Eriksen,         Aarhus University,            Denmark     (Polarizable embedding model, TDA)
  Rasmus Faber,             University of Copenhagen,     Denmark     (Vib.avg. NMR with SOPPA, parallel AO-SOPPA)
  Tobias Fahleson,          KTH Stockholm,                Sweden      (Damped cubic response)
  Berta Fernandez,          U. of Santiago de Compostela, Spain       (doublet spin, ESR in RESPONS)
  Lara Ferrighi,            Aarhus University,            Denmark     (PCM Cubic response)
  Heike Fliegl,             University of Oslo,           Norway      (CCSD(R12))
  Luca Frediani,            UiT The Arctic U. of Norway,  Norway      (PCM)
  Bin Gao,                  UiT The Arctic U. of Norway,  Norway      (Gen1Int library)
  Christof Haettig,         Ruhr-University Bochum,       Germany     (CC module)
  Kasper Hald,              Aarhus University,            Denmark     (CC module)
  Asger Halkier,            Aarhus University,            Denmark     (CC module)
  Frederik Beyer Hansen,    University of Copenhagen,     Denmark     (Parallel AO-SOPPA)
  Erik D. Hedegaard,        Univ. of Southern Denmark,    Denmark     (Polarizable embedding model, QM/MM)
  Hanne Heiberg,            University of Oslo,           Norway      (geometry analysis, selected one-electron integrals)
  Trygve Helgaker,          University of Oslo,           Norway      (DALTON; ABACUS, ERI, DFT modules, London, and much more)
  Alf Christian Hennum,     University of Oslo,           Norway      (Parity violation)
  Hinne Hettema,            University of Auckland,       New Zealand (quadratic response in RESPONS; SIRIUS supersymmetry)
  Eirik Hjertenaes,         NTNU,                         Norway      (Cholesky decomposition)
  Pi A. B. Haase,           University of Copenhagen,     Denmark     (Triplet AO-SOPPA)
  Maria Francesca Iozzi,    University of Oslo,           Norway      (RPA)
  Christoph Jacob           TU Braunschweig               Germany     (Frozen density embedding model)
  Brano Jansik              Technical Univ. of Ostrava    Czech Rep.  (DFT cubic response)
  Hans Joergen Aa. Jensen,  Univ. of Southern Denmark,    Denmark     (DALTON; SIRIUS, RESPONS, ABACUS modules, London, and much more)
  Dan Jonsson,              UiT The Arctic U. of Norway,  Norway      (cubic response in RESPONS module)
  Poul Joergensen,          Aarhus University,            Denmark     (RESPONS, ABACUS, and CC modules)
  Maciej Kaminski,          University of Warsaw,         Poland      (CPPh in RESPONS)
  Joanna Kauczor,           Linkoeping University,        Sweden      (Complex polarization propagator (CPP) module)
  Sheela Kirpekar,          Univ. of Southern Denmark,    Denmark     (Mass-velocity & Darwin integrals)
  Wim Klopper,              KIT Karlsruhe,                Germany     (R12 code in CC, SIRIUS, and ABACUS modules)
  Stefan Knecht,            ETH Zurich,                   Switzerland (Parallel CI and MCSCF)
  Rika Kobayashi,           Australian National Univ.,    Australia   (DIIS in CC, London in MCSCF)
  Henrik Koch,              NTNU,                         Norway      (CC module, Cholesky decomposition)
  Jacob Kongsted,           Univ. of Southern Denmark,    Denmark     (Polarizable embedding model, QM/MM)
  Andrea Ligabue,           University of Modena,         Italy       (CTOCD, AOSOPPA)
  Nanna H. List             Univ. of Southern Denmark,    Denmark     (Polarizable embedding model)
  Ola B. Lutnaes,           University of Oslo,           Norway      (DFT Hessian)
  Juan I. Melo,             University of Buenos Aires,   Argentina   (LRESC, Relativistic Effects on NMR Shieldings)
  Kurt V. Mikkelsen,        University of Copenhagen,     Denmark     (MC-SCRF and QM/MM)
  Rolf H. Myhre,            NTNU,                         Norway      (Subsystems and CC3)
  Christian Neiss,          Univ. Erlangen-Nuernberg,     Germany     (CCSD(R12))
  Christian B. Nielsen,     University of Copenhagen,     Denmark     (QM/MM)
  Patrick Norman,           KTH Stockholm,                Sweden      (Cubic response and complex frequency response in RESPONS)
  Jeppe Olsen,              Aarhus University,            Denmark     (SIRIUS CI/density modules)
  Jogvan Magnus H. Olsen,   Univ. of Southern Denmark,    Denmark     (Polarizable embedding model, QM/MM)
  Anders Osted,             Copenhagen University,        Denmark     (QM/MM)
  Martin J. Packer,         University of Sheffield,      UK          (SOPPA)
  Filip Pawlowski,          Kazimierz Wielki University,  Poland      (CC3)
  Morten N. Pedersen,       Univ. of Southern Denmark,    Denmark     (Polarizable embedding model)
  Thomas B. Pedersen,       University of Oslo,           Norway      (Cholesky decomposition)
  Patricio F. Provasi,      University of Northeastern,   Argentina   (Analysis of coupling constants in localized orbitals)
  Zilvinas Rinkevicius,     KTH Stockholm,                Sweden      (open-shell DFT, ESR)
  Elias Rudberg,            KTH Stockholm,                Sweden      (DFT grid and basis info)
  Torgeir A. Ruden,         University of Oslo,           Norway      (Numerical derivatives in ABACUS)
  Kenneth Ruud,             UiT The Arctic U. of Norway,  Norway      (DALTON; ABACUS magnetic properties and much more)
  Pawel Salek,              KTH Stockholm,                Sweden      (DALTON; DFT code)
  Claire C. M. Samson       University of Karlsruhe       Germany     (Boys localization, r12 integrals in ERI)
  Alfredo Sanchez de Meras, University of Valencia,       Spain       (CC module, Cholesky decomposition)
  Trond Saue,               Paul Sabatier University,     France      (direct Fock matrix construction)
  Stephan P. A. Sauer,      University of Copenhagen,     Denmark     (SOPPA(CCSD), SOPPA prop., AOSOPPA, vibrational g-factors)
  Andre S. P. Gomes,        CNRS/Universite de Lille,     France      (Frozen density embedding model)
  Bernd Schimmelpfennig,    Forschungszentrum Karlsruhe,  Germany     (AMFI module)
  Kristian Sneskov,         Aarhus University,            Denmark     (Polarizable embedding model, QM/MM)
  Arnfinn H. Steindal,      UiT The Arctic U. of Norway,  Norway      (parallel QM/MM, Polarizable embedding model)
  Casper Steinmann,         Univ. of Southern Denmark,    Denmark     (QFIT, Polarizable embedding model)
  K. O. Sylvester-Hvid,     University of Copenhagen,     Denmark     (MC-SCRF)
  Peter R. Taylor,          VLSCI/Univ. of Melbourne,     Australia   (Symmetry handling ABACUS, integral transformation)
  Andrew M. Teale,          University of Nottingham,     England     (DFT-AC, DFT-D)
  David P. Tew,             University of Bristol,        England     (CCSD(R12))
  Olav Vahtras,             KTH Stockholm,                Sweden      (triplet response, spin-orbit, ESR, TDDFT, open-shell DFT)
  Lucas Visscher,           Vrije Universiteit Amsterdam, Netherlands (Frozen density embedding model)
  David J. Wilson,          La Trobe University,          Australia   (DFT Hessian and DFT magnetizabilities)
  Hans Agren,               KTH Stockholm,                Sweden      (SIRIUS module, RESPONS, MC-SCRF solvation model)
 --------------------------------------------------------------------------------

     Date and time (Linux)  : Sat Jan 11 15:04:46 2020
     Host name              : Lab2-333-NPs                            

 * Work memory size             :  1024000000 =  7.629 gigabytes.

 * Directories for basis set searches:
   1) /home/lab333/dalton/build_2018_atlas
   2) /home/lab333/dalton/build_2018_atlas/basis


Compilation information
-----------------------

 Who compiled             | lab333
 Host                     | Lab2-333-NPs
 System                   | Linux-4.4.0-43-Microsoft
 CMake generator          | Unix Makefiles
 Processor                | x86_64
 64-bit integers          | OFF
 MPI                      | OFF
 Fortran compiler         | /usr/bin/gfortran
 Fortran compiler version | GNU Fortran (Ubuntu 7.3.0-27ubuntu1~18.04) 7.3.0
 C compiler               | /usr/bin/gcc
 C compiler version       | gcc (Ubuntu 7.3.0-27ubuntu1~18.04) 7.3.0
 C++ compiler             | /usr/bin/g++
 C++ compiler version     | g++ (Ubuntu 7.3.0-27ubuntu1~18.04) 7.3.0
 BLAS                     | /usr/lib/x86_64-linux-gnu/libf77blas.so;/usr/lib/x
                          | 86_64-linux-gnu/libcblas.so;/usr/lib/x86_64-linux-
                          | gnu/libatlas.so
 LAPACK                   | /usr/lib/x86_64-linux-gnu/libatlas.so;/usr/lib/x86
                          | _64-linux-gnu/atlas/liblapack.so
 Static linking           | OFF
 Last Git revision        | da625bf48c74028e805616daee31bc5d76b3a20d
 Git branch               | (HEAD detached at Dalton2018.1)
 Configuration time       | 2019-01-18 10:20:51.437510


   Content of the .dal input file
 ----------------------------------

**DALTON INPUT
.RUN RESPONSE
.DIRECT
**WAVE FUNCTIONS
.HF
.MP2
.MCSCF
*CONFIGURATION INPUT
.SPIN MULTIPLICITY
1
.SYMMETRY
1
.INACTIVE ORBITALS
15 10 2 0
.CAS SPACE
1 1 2 3
.ELECTRONS
10
*ORBITAL INPUT
.MOSTART
.HUCKEL
*OPTIMIZATION
.DETERMINANTS
.STATE
1
*CI VECTOR
.PLUS COMBINATIONS
**RESPONSE
*CUBIC
.DIPLEN
.BFREQ
1
0.0584
.CFREQ
1
-0.0584
.DFREQ
1
0.0584
**END OF DALTON INPUT


   Content of the .mol file
 ----------------------------

BASIS
aug-cc-pCVDZ
 nitrobenzene
 Generated by the Dalton Input File Plugin for Avogadro
Atomtypes=4 Angstrom Generators=2 X Y
Charge=6.0 Atoms=4
C        0.0000000000            0.0000000000           -0.0265759623
C       -1.2190534920            0.0000000000           -0.6979856948
C       -1.2105095870            0.0000000000           -2.0897394457
C        0.0000000000            0.0000000000           -2.7841484631
Charge=7.0 Atoms=1
N        0.0000000000            0.0000000000            1.4549291696
Charge=8.0 Atoms=1
O       0.5786456795408639            0.0            2.5343799658082187
Charge=1.0 Atoms=3
H       -2.1410602955            0.0000000000           -0.1327964319
H       -2.1492827751            0.0000000000           -2.6311811056
H        0.0000000000            0.0000000000           -3.8683953478


       *******************************************************************
       *********** Output from DALTON general input processing ***********
       *******************************************************************

 --------------------------------------------------------------------------------
   Overall default print level:    0
   Print level for DALTON.STAT:    1

    AO-direct calculation (in sections where implemented)
    HERMIT 1- and 2-electron integral sections will be executed
    "Old" integral transformation used (limited to max 255 basis functions)
    Wave function sections will be executed (SIRIUS module)
    Dynamic molecular response properties section will be executed (RESPONSE module)
 --------------------------------------------------------------------------------


   ****************************************************************************
   *************** Output of molecule and basis set information ***************
   ****************************************************************************


    The two title cards from your ".mol" input:
    ------------------------------------------------------------------------
 1:  nitrobenzene                                                           
 2:  Generated by the Dalton Input File Plugin for Avogadro                 
    ------------------------------------------------------------------------

  Coordinates are entered in Angstrom and converted to atomic units.
          - Conversion factor : 1 bohr = 0.52917721 A

  Atomic type no.    1
  --------------------
  Nuclear charge:   6.00000
  Number of symmetry independent centers:    4
  Number of basis sets to read;    2
  Basis set file used for this atomic type with Z =   6 :
     "/home/lab333/dalton/build_2018_atlas/basis/aug-cc-pCVDZ"

  Atomic type no.    2
  --------------------
  Nuclear charge:   7.00000
  Number of symmetry independent centers:    1
  Number of basis sets to read;    2
  Basis set file used for this atomic type with Z =   7 :
     "/home/lab333/dalton/build_2018_atlas/basis/aug-cc-pCVDZ"

  Atomic type no.    3
  --------------------
  Nuclear charge:   8.00000
  Number of symmetry independent centers:    1
  Number of basis sets to read;    2
  Basis set file used for this atomic type with Z =   8 :
     "/home/lab333/dalton/build_2018_atlas/basis/aug-cc-pCVDZ"

  Atomic type no.    4
  --------------------
  Nuclear charge:   1.00000
  Number of symmetry independent centers:    3
  Number of basis sets to read;    2
  Basis set file used for this atomic type with Z =   1 :
     "/home/lab333/dalton/build_2018_atlas/basis/aug-cc-pCVDZ"


                         SYMGRP: Point group information
                         -------------------------------

@    Point group: C2v

@  * The irrep name for each symmetry:    1: A1     2: B1     3: B2     4: A2 

   * The point group was generated by:

      Reflection in the yz-plane
      Reflection in the xz-plane

   * Group multiplication table

        |  E   C2z  Oxz  Oyz
   -----+--------------------
     E  |  E   C2z  Oxz  Oyz
    C2z | C2z   E   Oyz  Oxz
    Oxz | Oxz  Oyz   E   C2z
    Oyz | Oyz  Oxz  C2z   E 

   * Character table

        |  E   C2z  Oxz  Oyz
   -----+--------------------
    A1  |   1    1    1    1
    B1  |   1   -1    1   -1
    B2  |   1   -1   -1    1
    A2  |   1    1   -1   -1

   * Direct product table

        | A1   B1   B2   A2 
   -----+--------------------
    A1  | A1   B1   B2   A2 
    B1  | B1   A1   A2   B2 
    B2  | B2   A2   A1   B1 
    A2  | A2   B2   B1   A1 


                                 Isotopic Masses
                                 ---------------

                           C          12.000000
                           C   _1     12.000000
                           C   _2     12.000000
                           C   _1     12.000000
                           C   _2     12.000000
                           C          12.000000
                           N          14.003074
                           O   _1     15.994915
                           O   _2     15.994915
                           H   _1      1.007825
                           H   _2      1.007825
                           H   _1      1.007825
                           H   _2      1.007825
                           H           1.007825

                       Total mass:   123.032029 amu
                       Natural abundance:  92.716 %

 Center-of-mass coordinates (a.u.):    0.000000    0.000000   -0.132955


  Atoms and basis sets
  --------------------

  Number of atom types :    4
  Total number of atoms:   14

  Basis set used is "aug-cc-pCVDZ" from the basis set library.

  label    atoms   charge   prim   cont     basis
  ----------------------------------------------------------------------
  C           6    6.0000    39    27      [11s6p2d|5s4p2d]                                   
  N           1    7.0000    39    27      [11s6p2d|5s4p2d]                                   
  O           2    8.0000    39    27      [11s6p2d|5s4p2d]                                   
  H           5    1.0000    11     9      [5s2p|3s2p]                                        
  ----------------------------------------------------------------------
  total:     14   64.0000   406   288
  ----------------------------------------------------------------------
  Spherical harmonic basis used.

  Threshold for neglecting AO integrals:  1.00D-12


  Symmetry Coordinates
  --------------------

  Number of coordinates in each symmetry:    14   14    9    5


   Interatomic separations (in Angstrom):
   --------------------------------------

            C           C   _1      C   _2      C   _1      C   _2      C     
            ------      ------      ------      ------      ------      ------
 C     :    0.000000
 C   _1:    1.391719    0.000000
 C   _2:    1.391719    2.438107    0.000000
 C   _1:    2.392065    1.391780    2.799956    0.000000
 C   _2:    2.392065    2.799956    1.391780    2.421019    0.000000
 C     :    2.757573    2.416230    2.416230    1.395542    1.395542    0.000000
 N     :    1.481505    2.474093    2.474093    3.745665    3.745665    4.239078
 O   _1:    2.625514    3.698636    3.295195    4.958181    4.667090    5.349914
 O   _2:    2.625514    3.295195    3.698636    4.667090    4.958181    5.349914
 H   _1:    2.143694    1.081451    3.407316    2.166922    3.881063    3.407904
 H   _2:    2.143694    3.407316    1.081451    3.881063    2.166922    3.407904
 H   _1:    3.376890    2.145360    3.883675    1.083722    3.403140    2.154719
 H   _2:    3.376890    3.883675    2.145360    3.403140    1.083722    2.154719
 H     :    3.841819    3.396703    3.396703    2.151500    2.151500    1.084247

            N           O   _1      O   _2      H   _1      H   _2      H   _1
            ------      ------      ------      ------      ------      ------
 N     :    0.000000
 O   _1:    1.224763    0.000000
 O   _2:    1.224763    1.157291    0.000000
 H   _1:    2.665523    3.809282    3.091111    0.000000
 H   _2:    2.665523    3.091111    3.809282    4.282121    0.000000
 H   _1:    4.616894    5.841628    5.399067    2.498398    4.964773    0.000000
 H   _2:    4.616894    5.399067    5.841628    4.964773    2.498398    4.298566
 H     :    5.323325    6.428869    6.428869    4.305675    4.305675    2.479943

            H   _2      H     
            ------      ------
 H   _2:    0.000000
 H     :    2.479943    0.000000


  Max    interatomic separation is    6.4289 Angstrom (   12.1488 Bohr)
  between atoms   14 and    8, "H     " and "O   _1".

  Min HX interatomic separation is    1.0815 Angstrom (    2.0436 Bohr)

  Min YX interatomic separation is    1.1573 Angstrom (    2.1870 Bohr)


  Bond distances (Angstrom):
  --------------------------

                  atom 1     atom 2       distance
                  ------     ------       --------
  bond distance:  C   _1     C            1.391719
  bond distance:  C   _2     C            1.391719
  bond distance:  C   _1     C   _1       1.391780
  bond distance:  C   _2     C   _2       1.391780
  bond distance:  C          C   _1       1.395542
  bond distance:  C          C   _2       1.395542
  bond distance:  N          C            1.481505
  bond distance:  O   _1     N            1.224763
  bond distance:  O   _2     N            1.224763
  bond distance:  O   _2     O   _1       1.157291
  bond distance:  H   _1     C   _1       1.081451
  bond distance:  H   _2     C   _2       1.081451
  bond distance:  H   _1     C   _1       1.083722
  bond distance:  H   _2     C   _2       1.083722
  bond distance:  H          C            1.084247


  Bond angles (degrees):
  ----------------------

                  atom 1     atom 2     atom 3         angle
                  ------     ------     ------         -----
  bond angle:     C   _1     C          C   _2       122.311
  bond angle:     C   _1     C          N            118.844
  bond angle:     C   _2     C          N            118.844
  bond angle:     C          C   _1     C   _1       118.493
  bond angle:     C          C   _1     H   _1       119.647
  bond angle:     C   _1     C   _1     H   _1       121.860
  bond angle:     C          C   _2     C   _2       118.493
  bond angle:     C          C   _2     H   _2       119.647
  bond angle:     C   _2     C   _2     H   _2       121.860
  bond angle:     C   _1     C   _1     C            120.192
  bond angle:     C   _1     C   _1     H   _1       119.623
  bond angle:     C          C   _1     H   _1       120.185
  bond angle:     C   _2     C   _2     C            120.192
  bond angle:     C   _2     C   _2     H   _2       119.623
  bond angle:     C          C   _2     H   _2       120.185
  bond angle:     C   _1     C          C   _2       120.319
  bond angle:     C   _1     C          H            119.841
  bond angle:     C   _2     C          H            119.841
  bond angle:     C          N          O   _1       151.806
  bond angle:     C          N          O   _2       151.806
  bond angle:     O   _1     N          O   _2        56.388
  bond angle:     N          O   _1     O   _2        61.806
  bond angle:     N          O   _2     O   _1        61.806




 Principal moments of inertia (u*A**2) and principal axes
 --------------------------------------------------------

   IA     100.096525          0.000000    0.000000    1.000000
   IB     473.104900          1.000000    0.000000    0.000000
   IC     573.201425          0.000000    1.000000    0.000000


 Rotational constants
 --------------------

@    The molecule is planar.

               A                   B                   C

           5048.9166           1068.2177            881.6779 MHz
            0.168414            0.035632            0.029410 cm-1


@  Nuclear repulsion energy :  415.594620694407 Hartree


  Symmetry Orbitals
  -----------------

  Number of orbitals in each symmetry:         115   91   48   34


  Symmetry  A1 ( 1)

    1     C        1s         1
    2     C        1s         2
    3     C        1s         3
    4     C        1s         4
    5     C        1s         5
    6     C        2pz        8
    7     C        2pz       11
    8     C        2pz       14
    9     C        2pz       17
   10     C        3d0       20
   11     C        3d2+      22
   12     C        3d0       25
   13     C        3d2+      27
   14     C        1s        28 +   29
   15     C        1s        30 +   31
   16     C        1s        32 +   33
   17     C        1s        34 +   35
   18     C        1s        36 +   37
   19     C        2px       38 -   39
   20     C        2pz       42 +   43
   21     C        2px       44 -   45
   22     C        2pz       48 +   49
   23     C        2px       50 -   51
   24     C        2pz       54 +   55
   25     C        2px       56 -   57
   26     C        2pz       60 +   61
   27     C        3d0       66 +   67
   28     C        3d1+      68 -   69
   29     C        3d2+      70 +   71
   30     C        3d0       76 +   77
   31     C        3d1+      78 -   79
   32     C        3d2+      80 +   81
   33     C        1s        82 +   83
   34     C        1s        84 +   85
   35     C        1s        86 +   87
   36     C        1s        88 +   89
   37     C        1s        90 +   91
   38     C        2px       92 -   93
   39     C        2pz       96 +   97
   40     C        2px       98 -   99
   41     C        2pz      102 +  103
   42     C        2px      104 -  105
   43     C        2pz      108 +  109
   44     C        2px      110 -  111
   45     C        2pz      114 +  115
   46     C        3d0      120 +  121
   47     C        3d1+     122 -  123
   48     C        3d2+     124 +  125
   49     C        3d0      130 +  131
   50     C        3d1+     132 -  133
   51     C        3d2+     134 +  135
   52     C        1s       136
   53     C        1s       137
   54     C        1s       138
   55     C        1s       139
   56     C        1s       140
   57     C        2pz      143
   58     C        2pz      146
   59     C        2pz      149
   60     C        2pz      152
   61     C        3d0      155
   62     C        3d2+     157
   63     C        3d0      160
   64     C        3d2+     162
   65     N        1s       163
   66     N        1s       164
   67     N        1s       165
   68     N        1s       166
   69     N        1s       167
   70     N        2pz      170
   71     N        2pz      173
   72     N        2pz      176
   73     N        2pz      179
   74     N        3d0      182
   75     N        3d2+     184
   76     N        3d0      187
   77     N        3d2+     189
   78     O        1s       190 +  191
   79     O        1s       192 +  193
   80     O        1s       194 +  195
   81     O        1s       196 +  197
   82     O        1s       198 +  199
   83     O        2px      200 -  201
   84     O        2pz      204 +  205
   85     O        2px      206 -  207
   86     O        2pz      210 +  211
   87     O        2px      212 -  213
   88     O        2pz      216 +  217
   89     O        2px      218 -  219
   90     O        2pz      222 +  223
   91     O        3d0      228 +  229
   92     O        3d1+     230 -  231
   93     O        3d2+     232 +  233
   94     O        3d0      238 +  239
   95     O        3d1+     240 -  241
   96     O        3d2+     242 +  243
   97     H        1s       244 +  245
   98     H        1s       246 +  247
   99     H        1s       248 +  249
  100     H        2px      250 -  251
  101     H        2pz      254 +  255
  102     H        2px      256 -  257
  103     H        2pz      260 +  261
  104     H        1s       262 +  263
  105     H        1s       264 +  265
  106     H        1s       266 +  267
  107     H        2px      268 -  269
  108     H        2pz      272 +  273
  109     H        2px      274 -  275
  110     H        2pz      278 +  279
  111     H        1s       280
  112     H        1s       281
  113     H        1s       282
  114     H        2pz      285
  115     H        2pz      288


  Symmetry  B1 ( 2)

  116     C        2px        6
  117     C        2px        9
  118     C        2px       12
  119     C        2px       15
  120     C        3d1+      21
  121     C        3d1+      26
  122     C        1s        28 -   29
  123     C        1s        30 -   31
  124     C        1s        32 -   33
  125     C        1s        34 -   35
  126     C        1s        36 -   37
  127     C        2px       38 +   39
  128     C        2pz       42 -   43
  129     C        2px       44 +   45
  130     C        2pz       48 -   49
  131     C        2px       50 +   51
  132     C        2pz       54 -   55
  133     C        2px       56 +   57
  134     C        2pz       60 -   61
  135     C        3d0       66 -   67
  136     C        3d1+      68 +   69
  137     C        3d2+      70 -   71
  138     C        3d0       76 -   77
  139     C        3d1+      78 +   79
  140     C        3d2+      80 -   81
  141     C        1s        82 -   83
  142     C        1s        84 -   85
  143     C        1s        86 -   87
  144     C        1s        88 -   89
  145     C        1s        90 -   91
  146     C        2px       92 +   93
  147     C        2pz       96 -   97
  148     C        2px       98 +   99
  149     C        2pz      102 -  103
  150     C        2px      104 +  105
  151     C        2pz      108 -  109
  152     C        2px      110 +  111
  153     C        2pz      114 -  115
  154     C        3d0      120 -  121
  155     C        3d1+     122 +  123
  156     C        3d2+     124 -  125
  157     C        3d0      130 -  131
  158     C        3d1+     132 +  133
  159     C        3d2+     134 -  135
  160     C        2px      141
  161     C        2px      144
  162     C        2px      147
  163     C        2px      150
  164     C        3d1+     156
  165     C        3d1+     161
  166     N        2px      168
  167     N        2px      171
  168     N        2px      174
  169     N        2px      177
  170     N        3d1+     183
  171     N        3d1+     188
  172     O        1s       190 -  191
  173     O        1s       192 -  193
  174     O        1s       194 -  195
  175     O        1s       196 -  197
  176     O        1s       198 -  199
  177     O        2px      200 +  201
  178     O        2pz      204 -  205
  179     O        2px      206 +  207
  180     O        2pz      210 -  211
  181     O        2px      212 +  213
  182     O        2pz      216 -  217
  183     O        2px      218 +  219
  184     O        2pz      222 -  223
  185     O        3d0      228 -  229
  186     O        3d1+     230 +  231
  187     O        3d2+     232 -  233
  188     O        3d0      238 -  239
  189     O        3d1+     240 +  241
  190     O        3d2+     242 -  243
  191     H        1s       244 -  245
  192     H        1s       246 -  247
  193     H        1s       248 -  249
  194     H        2px      250 +  251
  195     H        2pz      254 -  255
  196     H        2px      256 +  257
  197     H        2pz      260 -  261
  198     H        1s       262 -  263
  199     H        1s       264 -  265
  200     H        1s       266 -  267
  201     H        2px      268 +  269
  202     H        2pz      272 -  273
  203     H        2px      274 +  275
  204     H        2pz      278 -  279
  205     H        2px      283
  206     H        2px      286


  Symmetry  B2 ( 3)

  207     C        2py        7
  208     C        2py       10
  209     C        2py       13
  210     C        2py       16
  211     C        3d1-      19
  212     C        3d1-      24
  213     C        2py       40 +   41
  214     C        2py       46 +   47
  215     C        2py       52 +   53
  216     C        2py       58 +   59
  217     C        3d2-      62 -   63
  218     C        3d1-      64 +   65
  219     C        3d2-      72 -   73
  220     C        3d1-      74 +   75
  221     C        2py       94 +   95
  222     C        2py      100 +  101
  223     C        2py      106 +  107
  224     C        2py      112 +  113
  225     C        3d2-     116 -  117
  226     C        3d1-     118 +  119
  227     C        3d2-     126 -  127
  228     C        3d1-     128 +  129
  229     C        2py      142
  230     C        2py      145
  231     C        2py      148
  232     C        2py      151
  233     C        3d1-     154
  234     C        3d1-     159
  235     N        2py      169
  236     N        2py      172
  237     N        2py      175
  238     N        2py      178
  239     N        3d1-     181
  240     N        3d1-     186
  241     O        2py      202 +  203
  242     O        2py      208 +  209
  243     O        2py      214 +  215
  244     O        2py      220 +  221
  245     O        3d2-     224 -  225
  246     O        3d1-     226 +  227
  247     O        3d2-     234 -  235
  248     O        3d1-     236 +  237
  249     H        2py      252 +  253
  250     H        2py      258 +  259
  251     H        2py      270 +  271
  252     H        2py      276 +  277
  253     H        2py      284
  254     H        2py      287


  Symmetry  A2 ( 4)

  255     C        3d2-      18
  256     C        3d2-      23
  257     C        2py       40 -   41
  258     C        2py       46 -   47
  259     C        2py       52 -   53
  260     C        2py       58 -   59
  261     C        3d2-      62 +   63
  262     C        3d1-      64 -   65
  263     C        3d2-      72 +   73
  264     C        3d1-      74 -   75
  265     C        2py       94 -   95
  266     C        2py      100 -  101
  267     C        2py      106 -  107
  268     C        2py      112 -  113
  269     C        3d2-     116 +  117
  270     C        3d1-     118 -  119
  271     C        3d2-     126 +  127
  272     C        3d1-     128 -  129
  273     C        3d2-     153
  274     C        3d2-     158
  275     N        3d2-     180
  276     N        3d2-     185
  277     O        2py      202 -  203
  278     O        2py      208 -  209
  279     O        2py      214 -  215
  280     O        2py      220 -  221
  281     O        3d2-     224 +  225
  282     O        3d1-     226 -  227
  283     O        3d2-     234 +  235
  284     O        3d1-     236 -  237
  285     H        2py      252 -  253
  286     H        2py      258 -  259
  287     H        2py      270 -  271
  288     H        2py      276 -  277

  Symmetries of electric field:  B1 (2)  B2 (3)  A1 (1)

  Symmetries of magnetic field:  B2 (3)  B1 (2)  A2 (4)


                     .---------------------------------------.
                     | Starting in Integral Section (HERMIT) |
                     `---------------------------------------'



 ***************************************************************************************
 ****************** Output from **INTEGRALS input processing (HERMIT) ******************
 ***************************************************************************************


 - Using defaults, no **INTEGRALS input found

 Default print level:        1

 Calculation of one-electron Hamiltonian integrals.

 Center of mass  (bohr):      0.000000000000      0.000000000000     -0.132954597597
 Operator center (bohr):      0.000000000000      0.000000000000      0.000000000000
 Gauge origin    (bohr):      0.000000000000      0.000000000000      0.000000000000
 Dipole origin   (bohr):      0.000000000000      0.000000000000      0.000000000000


     ************************************************************************
     ************************** Output from HERINT **************************
     ************************************************************************



                      Nuclear contribution to dipole moments
                      --------------------------------------

                 au               Debye          C m (/(10**-30)

      z    -16.96750132       -43.12708382      -143.85646694


  Time used in GABGEN     is       0.11 seconds
  Total CPU  time used in HERMIT:   0.39 seconds
  Total wall time used in HERMIT:   0.40 seconds


                        .----------------------------------.
                        | End of Integral Section (HERMIT) |
                        `----------------------------------'



                   .--------------------------------------------.
                   | Starting in Wave Function Section (SIRIUS) |
                   `--------------------------------------------'


 *** Output from Huckel module :

     Using EWMO model:          F
     Using EHT  model:          T
     Number of Huckel orbitals each symmetry:   24   17    6    3

 Huckel EHT eigenvalues for symmetry :  1
          -20.724632     -15.706208     -11.414843     -11.394404     -11.376676
          -11.362578      -1.946315      -1.577783      -1.270380      -1.009934
           -0.833242      -0.736731      -0.636479      -0.617823      -0.541325
           -0.438717      -0.311596      -0.237680      -0.220007      -0.213415
           -0.205733      -0.178511      -0.166800      -0.160390

 Huckel EHT eigenvalues for symmetry :  2
          -20.702298     -11.396450     -11.377841      -1.239918      -1.145502
           -0.881942      -0.587439      -0.533869      -0.483655      -0.416874
           -0.359322      -0.331656      -0.213858      -0.202817      -0.176270
           -0.165471      -0.163315

 Huckel EHT eigenvalues for symmetry :  3
           -0.842835      -0.698613      -0.486272      -0.392480      -0.281582
           -0.236527

 Huckel EHT eigenvalues for symmetry :  4
           -0.494729      -0.460506      -0.288957

 **********************************************************************
 *SIRIUS* a direct, restricted step, second order MCSCF program       *
 **********************************************************************

 
     Date and time (Linux)  : Sat Jan 11 15:04:47 2020
     Host name              : Lab2-333-NPs                            

 Title lines from ".mol" input file:
      nitrobenzene                                                           
      Generated by the Dalton Input File Plugin for Avogadro                 

 Print level on unit LUPRI =   2 is   0
 Print level on unit LUW4  =   2 is   5

@    MC-SCF optimization.

@    Multi-configurational response calculation.
@              Type: complete active space calculation (CAS).

@    This is a combination run starting with
@              a restricted, closed shell Hartree-Fock calculation
@              an MP2 calculation

 Fock matrices are calculated directly without use of integrals on disk.

 Initial molecular orbitals are obtained according to
 ".MOSTART EHT   " input option

     Wave function specification
     ============================
@    Wave function type        --- MC-SCF ---
@    Number of closed shell electrons          54
@    Number of electrons in active shells      10
@    Total charge of the molecule               0

@    Spin multiplicity and 2 M_S                1         0
@    Total number of symmetries                 4 (point group: C2v)
@    Reference state symmetry                   1 (irrep name : A1 )

     Orbital specifications
     ======================
@    Abelian symmetry species          All |    1    2    3    4
@                                          |  A1   B1   B2   A2 
                                       --- |  ---  ---  ---  ---
@    Inactive orbitals                  27 |   15   10    2    0
@    Active orbitals                     7 |    1    1    2    3
@    Secondary orbitals                254 |   99   80   44   31
@    Total number of orbitals          288 |  115   91   48   34
@    Number of basis functions         288 |  115   91   48   34

      ** Automatic occupation of RHF orbitals **

      -- Initial occupation of symmetries is determined from extended Huckel guess.           
      -- Initial occupation of symmetries is :
@    Occupied SCF orbitals              32 |   16   10    4    2

     Optimization information
     ========================
@    Number of determinants                 115
@    Number of orbital rotations           2762
     ------------------------------------------
@    Total number of variables             2877

     Maximum number of macro iterations      25
     Maximum number of micro iterations     600
     Threshold for MCSCF gradient      1.00D-05
     Number of initial trial vectors          1
     Number of initial CI iterations          3
     Number of simultaneous trial vectors     1

@    This calculation converges to the lowest state for the specified symmetry and spin species.

     Maximum number of NEO/NR iterations  24

    INFORMATION: Switched to "new" integral transformation (from 1988 ;-) )
    because more than 255 basis functions.


 ***********************************************
 ***** DIIS acceleration of SCF iterations *****
 ***********************************************

 C1-DIIS algorithm; max error vectors =    8

 Automatic occupation of symmetries with  64 electrons.

 Iter     Total energy    Error norm  Delta(E)    SCF occupation
 -----------------------------------------------------------------------------
   1  Screening settings (-IFTHRS, JTDIIS, DIFDEN, times)   -8    1    T  2.62D+01  2.62D+01
@  1  -432.220840662       6.18D+00  -4.32D+02    16  10   4   2
      Virial theorem: -V/T =      1.999307
@    MULPOP   C       0.47; C   _1  0.10; C   _2  0.10; C   _1  0.26; C   _2  0.26; C       0.19; N       0.09; O   _1 -0.27; O   _2 -0.27; H   _1 -0.19; 
@             H   _2 -0.19; H   _1 -0.18; H   _2 -0.18; H      -0.18; 
   1  Level shift: doubly occupied orbital energies shifted by -2.00D-01
 -----------------------------------------------------------------------------
   2  Screening settings (-IFTHRS, JTDIIS, DIFDEN, times)   -8    2    T  2.62D+01  2.62D+01
@  2  -433.794216555       1.41D+00  -1.57D+00    16  10   4   2
      Virial theorem: -V/T =      1.994066
@    MULPOP   C       1.57; C   _1  0.07; C   _2  0.07; C   _1  0.41; C   _2  0.41; C       0.38; N       0.38; O   _1 -0.56; O   _2 -0.56; H   _1 -0.45; 
@             H   _2 -0.45; H   _1 -0.41; H   _2 -0.41; H      -0.43; 
   2  Level shift: doubly occupied orbital energies shifted by -5.00D-02
 -----------------------------------------------------------------------------
   3  Screening settings (-IFTHRS, JTDIIS, DIFDEN, times)   -8    3    T  2.60D+01  2.60D+01
@  3  -433.906457657       4.27D-01  -1.12D-01    16  10   4   2
      Virial theorem: -V/T =      1.999102
@    MULPOP   C       2.02; C   _1 -0.02; C   _2 -0.02; C   _1  0.56; C   _2  0.56; C       0.31; N       0.29; O   _1 -0.65; O   _2 -0.65; H   _1 -0.51; 
@             H   _2 -0.51; H   _1 -0.46; H   _2 -0.46; H      -0.47; 
   3  Level shift: doubly occupied orbital energies shifted by -2.50D-02
 -----------------------------------------------------------------------------
   4  Screening settings (-IFTHRS, JTDIIS, DIFDEN, times)   -8    4    T  2.59D+01  2.59D+01
@  4  -433.918865791       1.46D-01  -1.24D-02    16  10   4   2
      Virial theorem: -V/T =      1.998295
@    MULPOP   C       2.03; C   _1 -0.06; C   _2 -0.06; C   _1  0.58; C   _2  0.58; C       0.33; N       0.22; O   _1 -0.63; O   _2 -0.63; H   _1 -0.50; 
@             H   _2 -0.50; H   _1 -0.45; H   _2 -0.45; H      -0.47; 
   4  Level shift: doubly occupied orbital energies shifted by -1.25D-02
 -----------------------------------------------------------------------------
   5  Screening settings (-IFTHRS, JTDIIS, DIFDEN, times)  -10    5    F  2.63D+01  2.63D+01
@  5  -433.920208460       4.92D-02  -1.34D-03    16  10   4   2
      Virial theorem: -V/T =      1.998000
@    MULPOP   C       2.05; C   _1 -0.06; C   _2 -0.06; C   _1  0.57; C   _2  0.57; C       0.31; N       0.22; O   _1 -0.64; O   _2 -0.64; H   _1 -0.49; 
@             H   _2 -0.49; H   _1 -0.44; H   _2 -0.44; H      -0.46; 
 -----------------------------------------------------------------------------
   6  Screening settings (-IFTHRS, JTDIIS, DIFDEN, times)  -10    6    T  2.61D+01  2.61D+01
@  6  -433.920384514       1.03D-02  -1.76D-04    16  10   4   2
      Virial theorem: -V/T =      1.998121
@    MULPOP   C       2.05; C   _1 -0.07; C   _2 -0.07; C   _1  0.57; C   _2  0.57; C       0.31; N       0.21; O   _1 -0.63; O   _2 -0.63; H   _1 -0.49; 
@             H   _2 -0.49; H   _1 -0.44; H   _2 -0.44; H      -0.46; 
 -----------------------------------------------------------------------------
   7  Screening settings (-IFTHRS, JTDIIS, DIFDEN, times)  -13    7    F  2.65D+01  2.65D+01
@  7  -433.920395972       3.02D-03  -1.15D-05    16  10   4   2
      Virial theorem: -V/T =      1.998113
@    MULPOP   C       2.05; C   _1 -0.07; C   _2 -0.07; C   _1  0.57; C   _2  0.57; C       0.31; N       0.21; O   _1 -0.63; O   _2 -0.63; H   _1 -0.49; 
@             H   _2 -0.49; H   _1 -0.44; H   _2 -0.44; H      -0.45; 
 -----------------------------------------------------------------------------
   8  Screening settings (-IFTHRS, JTDIIS, DIFDEN, times)  -13    8    T  2.65D+01  2.65D+01
@  8  -433.920397337       1.40D-03  -1.37D-06    16  10   4   2
      Virial theorem: -V/T =      1.998108
@    MULPOP   C       2.05; C   _1 -0.07; C   _2 -0.07; C   _1  0.57; C   _2  0.57; C       0.31; N       0.21; O   _1 -0.63; O   _2 -0.63; H   _1 -0.49; 
@             H   _2 -0.49; H   _1 -0.44; H   _2 -0.44; H      -0.45; 
 -----------------------------------------------------------------------------
   9  Screening settings (-IFTHRS, JTDIIS, DIFDEN, times)  -13    9    T  2.64D+01  2.64D+01
@  9  -433.920397734       5.53D-04  -3.97D-07    16  10   4   2
      Virial theorem: -V/T =      1.998110
@    MULPOP   C       2.05; C   _1 -0.07; C   _2 -0.07; C   _1  0.57; C   _2  0.57; C       0.31; N       0.21; O   _1 -0.63; O   _2 -0.63; H   _1 -0.49; 
@             H   _2 -0.49; H   _1 -0.44; H   _2 -0.44; H      -0.45; 
 -----------------------------------------------------------------------------
  10  Screening settings (-IFTHRS, JTDIIS, DIFDEN, times)  -13   10    T  2.72D+01  2.72D+01
@ 10  -433.920397853       2.30D-04  -1.19D-07    16  10   4   2
      Virial theorem: -V/T =      1.998110
@    MULPOP   C       2.05; C   _1 -0.07; C   _2 -0.07; C   _1  0.57; C   _2  0.57; C       0.31; N       0.21; O   _1 -0.63; O   _2 -0.63; H   _1 -0.49; 
@             H   _2 -0.49; H   _1 -0.44; H   _2 -0.44; H      -0.46; 
 -----------------------------------------------------------------------------
  11  Screening settings (-IFTHRS, JTDIIS, DIFDEN, times)  -13   11    T  2.74D+01  2.74D+01
@ 11  -433.920397871       1.01D-04  -1.83D-08    16  10   4   2
      Virial theorem: -V/T =      1.998110
@    MULPOP   C       2.05; C   _1 -0.07; C   _2 -0.07; C   _1  0.57; C   _2  0.57; C       0.31; N       0.21; O   _1 -0.63; O   _2 -0.63; H   _1 -0.49; 
@             H   _2 -0.49; H   _1 -0.44; H   _2 -0.44; H      -0.46; 
 -----------------------------------------------------------------------------
  12  Screening settings (-IFTHRS, JTDIIS, DIFDEN, times)  -13   12    T  2.62D+01  2.62D+01
@ 12  -433.920397874       3.28D-05  -2.55D-09    16  10   4   2
      Virial theorem: -V/T =      1.998110
@    MULPOP   C       2.05; C   _1 -0.07; C   _2 -0.07; C   _1  0.57; C   _2  0.57; C       0.31; N       0.21; O   _1 -0.63; O   _2 -0.63; H   _1 -0.49; 
@             H   _2 -0.49; H   _1 -0.44; H   _2 -0.44; H      -0.46; 
 -----------------------------------------------------------------------------
  13  Screening settings (-IFTHRS, JTDIIS, DIFDEN, times)  -13   13    T  2.61D+01  2.61D+01
@ 13  -433.920397874       7.15D-06  -2.07D-10    16  10   4   2
      Virial theorem: -V/T =      1.998110
@    MULPOP   C       2.05; C   _1 -0.07; C   _2 -0.07; C   _1  0.57; C   _2  0.57; C       0.31; N       0.21; O   _1 -0.63; O   _2 -0.63; H   _1 -0.49; 
@             H   _2 -0.49; H   _1 -0.44; H   _2 -0.44; H      -0.46; 
 -----------------------------------------------------------------------------
  14  Screening settings (-IFTHRS, JTDIIS, DIFDEN, times)  -13   14    T  2.59D+01  2.59D+01
@ 14  -433.920397874       3.19D-06  -5.00D-12    16  10   4   2
      Virial theorem: -V/T =      1.998110
@    MULPOP   C       2.05; C   _1 -0.07; C   _2 -0.07; C   _1  0.57; C   _2  0.57; C       0.31; N       0.21; O   _1 -0.63; O   _2 -0.63; H   _1 -0.49; 
@             H   _2 -0.49; H   _1 -0.44; H   _2 -0.44; H      -0.46; 
 -----------------------------------------------------------------------------
  15  Screening settings (-IFTHRS, JTDIIS, DIFDEN, times)  -13   15    T  2.59D+01  2.59D+01
@ 15  -433.920397874       8.57D-07  -3.87D-12    16  10   4   2

@ *** DIIS converged in  15 iterations !
@     Converged SCF energy, gradient:   -433.920397874052    8.57D-07
    - total time used in SIRFCK :              0.00 seconds

 --- Writing SIRIFC interface file

 CPU and wall time for SCF :     395.328     395.391


 ----- Output from SIRIUS MP2 module -----

 Reference: H.J.Aa.Jensen, P.Jorgensen, H.Agren, and J.Olsen,
            J. Chem. Phys. 88, 3834 (1988); 89, 5354 (1988)

 Checking that the closed shell orbitals are canonical Hartree-Fock orbitals

    Number of electrons  :   64
    Closed shell orbitals:   16   10    4    2

 Generating Fock matrix

 Hartree-Fock electronic energy:        -849.515018568463
 Hartree-Fock total      energy:        -433.920397874057

 Hartree-Fock orbital energies, symmetry 1 ( A1 ),   16 occupied SCF orbitals

       -20.68614643   -15.67128769   -11.35078294   -11.26459700   -11.25814031
       -11.24643683    -1.92173398    -1.20455437    -1.13064905    -1.02134271
        -0.87501204    -0.78634879    -0.72729923    -0.68821980    -0.62912416
        -0.53214186     0.03306948     0.04551442     0.06348651     0.10816117
         0.12414918     0.14129140     0.15501849     0.15737271     0.17013603
         0.18339419     0.20436087     0.25725822     0.26771737     0.29034867
         0.32095178     0.33474163     0.34446489     0.35968468     0.36470419
         0.39199482     0.40998714     0.42428549     0.45648139     0.47714952
         0.51202162     0.57079194     0.57558034     0.61659988     0.62559665
         0.66799571     0.67559642     0.68937771     0.71950069     0.76067131
         0.78917232     0.84640488     0.90260515     0.90683758     0.95852708
         0.99239014     1.01934113     1.06664611     1.08420785     1.09570223
         1.19730918     1.29269653     1.33714990     1.41368749     1.49762311
         1.53954954     1.54973019     1.59160893     1.60475826     1.63230889
         1.70979101     1.73418774     1.76801423     1.79482916     1.87079518
         1.95987097     1.99280403     2.03393790     2.03842621     2.21113339
         2.23738681     2.30325189     2.39439954     2.41167344     2.43945814
         2.51859485     2.57918464     2.69070891     2.75107656     2.83943561
         2.91339438     2.96767518     3.05456823     3.16457331     3.22147751
         3.34918194     3.60622532     3.71126489     3.95794122     4.17891226
        19.82056267    20.32830267    20.47153356    20.64028530    23.37038527
        23.43849180    23.48657859    23.81035307    23.91079942    24.12961004
        27.36348612    31.72902824    35.81096028    39.74219458    40.07857131

 Hartree-Fock orbital energies, symmetry 2 ( B1 ),   10 occupied SCF orbitals

       -20.68526281   -11.26457352   -11.25815421    -1.18263864    -1.03965432
        -0.85396665    -0.65967355    -0.61139093    -0.59901589    -0.51825686
         0.03880105     0.05721077     0.13315597     0.13728729     0.15180926
         0.16094731     0.18088328     0.20746543     0.25821151     0.29430365
         0.30377604     0.31585731     0.34032965     0.35885605     0.37454218
         0.39435799     0.41389920     0.43313526     0.49857005     0.55614408
         0.58228380     0.60566484     0.64999745     0.66424230     0.68736889
         0.70688867     0.76416583     0.77902919     0.83353269     0.85337642
         0.88509474     0.89772755     1.03423757     1.16962263     1.23996987
         1.32017181     1.35788965     1.38439479     1.45888064     1.50298214
         1.51213390     1.58854661     1.60678498     1.65359693     1.72141319
         1.76823434     1.78659787     1.82729607     1.87162321     1.93320292
         2.05574689     2.13997510     2.17513523     2.31857992     2.33344974
         2.38942860     2.45688309     2.52638317     2.60799531     2.73162210
         2.90976830     2.94612833     3.16274617     3.34307947     3.36237057
         3.43027719     3.94784233     4.30469511     4.62035079    20.29661070
        20.47976803    22.87959113    23.33124775    23.39546210    23.96178608
        24.13322001    24.32008800    31.32438228    35.74562585    39.94635557
        40.26783039

 Hartree-Fock orbital energies, symmetry 3 ( B2 ),    4 occupied SCF orbitals

        -0.87950109    -0.54191283    -0.42909762    -0.30050784     0.10448006
         0.11985334     0.13889423     0.18526711     0.19049024     0.23391658
         0.29960243     0.34024534     0.39154745     0.46786947     0.54708575
         0.59957524     0.67226315     0.71887450     0.79545078     0.87745099
         0.91027350     0.93206233     0.95428049     1.05045869     1.09347948
         1.14686694     1.17799445     1.48062614     1.52598745     1.62983016
         1.68080964     1.71751796     1.84985310     1.94078447     2.09507630
         2.09836052     2.17914732     2.30974555     2.57245183     2.69633398
         3.17186490     3.81374710    22.56523095    22.71427042    22.84360005
        23.04167967    30.75234427    39.44978736

 Hartree-Fock orbital energies, symmetry 4 ( A2 ),    2 occupied SCF orbitals

        -0.44568052    -0.35888060     0.09390591     0.13704538     0.19094768
         0.28228381     0.41862261     0.49484247     0.55117561     0.65876863
         0.74507308     0.88920670     0.90975219     0.94790171     1.04123458
         1.08120453     1.23032336     1.28255331     1.44478360     1.59139576
         1.69189312     1.70257406     1.87848965     1.89573891     2.11533010
         2.19081769     2.36129278     2.53872365     2.62922320     3.82269971
         4.11028451    22.70911964    22.87827208    39.39488094

    E(LUMO) :     0.03306948   (in symmetry 1)
  - E(HOMO) :    -0.30050784   (in symmetry 3)
  --------------------------
    gap     :     0.33357733

---> (Re)generating AOTWOINT


     ************************************************************************
     ************************** Output from HERINT **************************
     ************************************************************************


 Threshold for neglecting two-electron integrals:  1.00D-12
 HERMIT - Number of two-electron integrals written:   198792289 ( 23.0% )
 HERMIT - Megabytes written:                           3034.598

  Time used in TWOINT     is      36.30 seconds

 2-el. integral transformation level 5: Total CPU and WALL times (sec)     387.516     389.801

 MP2 move   0.908399 electrons to unoccupied HF orbitals


@   Hartree-Fock total energy   :          -433.9203978741
@   + MP2 contribution          :            -1.6680007358
@   = MP2 second order energy   :          -435.5883986099

 Natural orbital occupation numbers, symmetry 1 (irrep A1 )
 Sum =    31.98079138; RHF =    32.00000000; Difference =    -0.01920862

         1.99928623     1.99906067     1.99876108     1.99875755     1.99875201
         1.99874841     1.98915058     1.98420621     1.97977626     1.97431515
         1.96971267     1.96629813     1.96353261     1.95982798     1.95466764
         1.94748626     0.03780903     0.02586191     0.02426500     0.02259625
         0.01900292     0.01738908     0.01659214     0.01359859     0.01340839
         0.01230014     0.00998642     0.00892484     0.00830932     0.00775344
         0.00680637     0.00645572     0.00468607     0.00436339     0.00335280
         0.00298780     0.00288071     0.00261799     0.00236539     0.00205069
         0.00182257     0.00169443     0.00150917     0.00129691     0.00127864
         0.00117979     0.00106855     0.00096063     0.00073655     0.00065692
         0.00061803     0.00051133     0.00048796     0.00044632     0.00042464
         0.00041419     0.00039875     0.00037443     0.00035533     0.00034407
         0.00033146     0.00032256     0.00031602     0.00030627     0.00028133
         0.00026186     0.00023302     0.00022462     0.00021956     0.00019812
         0.00019346     0.00018367     0.00017699     0.00017394     0.00016769
         0.00016045     0.00015330     0.00014399     0.00013802     0.00013639
         0.00013289     0.00012642     0.00011738     0.00010486     0.00010137
         0.00009318     0.00007856     0.00006574     0.00005894     0.00005211
         0.00004546     0.00003618     0.00003363     0.00002571     0.00001784
         0.00001681     0.00001394     0.00001255     0.00001080     0.00000970
         0.00000914     0.00000750     0.00000677     0.00000391     0.00000237
         0.00000122     0.00000093     0.00000077     0.00000056     0.00000031
         0.00000017     0.00000009    -0.00000008    -0.00000068    -0.00000141

 Natural orbital occupation numbers, symmetry 2 (irrep B1 )
 Sum =    20.00524665; RHF =    20.00000000; Difference =     0.00524665

         1.99928174     1.99875753     1.99874971     1.98155773     1.97999103
         1.97255754     1.96083042     1.95557178     1.95425602     1.94735345
         0.04494343     0.02994049     0.02498734     0.02323735     0.01702884
         0.01641266     0.01573950     0.01185905     0.00958350     0.00910603
         0.00807865     0.00559031     0.00533187     0.00350136     0.00322163
         0.00306134     0.00251029     0.00217188     0.00211528     0.00165226
         0.00162359     0.00146440     0.00135176     0.00131376     0.00104997
         0.00098961     0.00068027     0.00064333     0.00054313     0.00045742
         0.00042511     0.00039698     0.00037051     0.00034063     0.00033313
         0.00029819     0.00028904     0.00027784     0.00025036     0.00021711
         0.00020893     0.00019839     0.00018860     0.00018304     0.00018078
         0.00017178     0.00016730     0.00016214     0.00015152     0.00014365
         0.00013788     0.00013444     0.00012429     0.00012017     0.00010689
         0.00010171     0.00009287     0.00007876     0.00005169     0.00004610
         0.00003434     0.00003077     0.00002983     0.00002368     0.00001646
         0.00001367     0.00001200     0.00001133     0.00000925     0.00000868
         0.00000445     0.00000300     0.00000136     0.00000129     0.00000060
         0.00000036     0.00000027     0.00000012    -0.00000007    -0.00000066
        -0.00000117

 Natural orbital occupation numbers, symmetry 3 (irrep B2 )
 Sum =     7.99284086; RHF =     8.00000000; Difference =    -0.00715914

         1.97801296     1.95912662     1.94529359     1.90750862     0.07096467
         0.03187745     0.01575679     0.01449540     0.01088732     0.01020086
         0.00896943     0.00715255     0.00702123     0.00534053     0.00403815
         0.00333972     0.00228720     0.00162533     0.00147176     0.00091480
         0.00089613     0.00070646     0.00055490     0.00048343     0.00047699
         0.00043531     0.00039140     0.00034784     0.00030460     0.00024566
         0.00021421     0.00020174     0.00019212     0.00018257     0.00017260
         0.00013776     0.00012648     0.00011771     0.00009904     0.00009330
         0.00007701     0.00005546     0.00002472     0.00002006     0.00001116
         0.00000736     0.00000173    -0.00002184

 Natural orbital occupation numbers, symmetry 4 (irrep A2 )
 Sum =     4.02112111; RHF =     4.00000000; Difference =     0.02112111

         1.96848087     1.91292281     0.06957616     0.01615834     0.01102576
         0.00970376     0.00728241     0.00579610     0.00437485     0.00374542
         0.00272940     0.00189188     0.00146549     0.00096544     0.00079561
         0.00074415     0.00062940     0.00053561     0.00041508     0.00037693
         0.00031408     0.00023930     0.00019765     0.00018913     0.00015423
         0.00013427     0.00012453     0.00009965     0.00007491     0.00005064
         0.00002213     0.00001900     0.00000855    -0.00012244

 Time used for MP2 natural orbitals :     417.312 CPU seconds,     419.601 wall seconds.

 CPU and wall time for MP2 :     417.312     419.601


        SIRIUS MCSCF optimization (SIROPT)
 ================================================


 Fock matrix screening setting for SIRCNO: IFTHRS =    9


 ----- Output from SIRIUS CI module (CICTL) -----




 2-el. integral transformation level 0: Total CPU and WALL times (sec)      94.484      94.498


 --- SIRCI.CIST1: plus combination of all degenerate
                 configurations is used as start vectors.


 (CIST1) 8 lowest diagonal elements:

 Element no. Config.no.    Active energy      Total energy

         1 :          1    -15.3767644776   -433.9088540793
         2 :          2    -15.0841381453   -433.6162277469
         3 :          6    -15.0841381453   -433.6162277469
         4 :          3    -14.8515274404   -433.3836170420
         5 :         11    -14.8515274404   -433.3836170420
         6 :          7    -14.7767873921   -433.3088769937
         7 :         44    -14.7556355252   -433.2877251269
         8 :         45    -14.6510880941   -433.1831776958


 Convergence threshold for CI optimization :     0.00000500



 *** Reached maximum number of CI iterations:    3
              1 CI roots are not converged.


@ Final CI energies and residuals in symmetry 1 (irrep A1 )
@    1     -433.927439890066978       2.33D-03

   --- OUTPUT FROM SIRCNO     Keyword = FD+NO 


 Occupations of CAS natural orbitals:

 Symmetry  1 ( irrep A1  in C2v )

   1.996202799

 Symmetry  2 ( irrep B1  in C2v )

   0.004229116

 Symmetry  3 ( irrep B2  in C2v )

   1.997196880   1.988545906

 Symmetry  4 ( irrep A2  in C2v )

   1.999569825   1.972801600   0.041453874


 --- MACRO ITERATION  1 ---
 --------------------------

 2-el. integral transformation level 3: Total CPU and WALL times (sec)      96.062      96.118

 Fock matrix screening setting for this macro iteration: 10^( -9)

 Total MCSCF energy       :          -433.927439886278307  (MACRO    1)

 - Nuclear repulsion      :           415.594620694406615
 - Inactive energy        :          -834.126710292079565
 - Active energy          :           -15.395350288605359

 Norm of total gradient   :             0.422920402388
 -    of CI gradient      :             0.004659950545
 -    of orbital gradient :             0.422894728764
      Virial theorem: -V/T =      1.987826
@    MULPOP   C       1.98; C   _1  0.08; C   _2  0.08; C   _1  0.49; C   _2  0.49; C       0.41; N       0.94; O   _1 -0.97; O   _2 -0.97; H   _1 -0.54; 
@             H   _2 -0.54; H   _1 -0.47; H   _2 -0.47; H      -0.49; 

 (SIRNEO) iteration (  1,  4)
 Micro iteration termination criterion met, EVAL(ISTATE+1) = -1.30D-02

   --- OUTPUT FROM SIRCNO     Keyword = FD+NO 


 Occupations of CAS natural orbitals:

 Symmetry  1 ( irrep A1  in C2v )

   1.985341391

 Symmetry  2 ( irrep B1  in C2v )

   0.015266071

 Symmetry  3 ( irrep B2  in C2v )

   1.997221652   1.987579071

 Symmetry  4 ( irrep A2  in C2v )

   1.999391967   1.970471977   0.044727870


 --- MACRO ITERATION  2 ---
 --------------------------

 2-el. integral transformation level 3: Total CPU and WALL times (sec)      95.656      95.690

 Fock matrix screening setting for this macro iteration: 10^( -9)

 Total MCSCF energy       :          -433.946886454256799  (MACRO    2)

 - Nuclear repulsion      :           415.594620694406615
 - Inactive energy        :          -833.855597380254721
 - Active energy          :           -15.685909768408688

 Norm of total gradient   :             0.063658919814
 -    of CI gradient      :             0.025340744908
 -    of orbital gradient :             0.058397814337
      Virial theorem: -V/T =      1.987319
@    MULPOP   C       2.36; C   _1 -0.17; C   _2 -0.17; C   _1  0.59; C   _2  0.59; C       0.34; N       1.21; O   _1 -1.20; O   _2 -1.20; H   _1 -0.50; 
@             H   _2 -0.50; H   _1 -0.44; H   _2 -0.44; H      -0.45; 

 Residual norm when dim(red L) =   9
 NEO root     CSF        orbital          total
    1     0.00476812     0.00208860     0.00520550 converged

 (NEONEX) NEO vector is converged.

   --- OUTPUT FROM SIRCNO     Keyword = FD+NO 


 Occupations of CAS natural orbitals:

 Symmetry  1 ( irrep A1  in C2v )

   1.971035845

 Symmetry  2 ( irrep B1  in C2v )

   0.030219350

 Symmetry  3 ( irrep B2  in C2v )

   1.997391394   1.987047919

 Symmetry  4 ( irrep A2  in C2v )

   1.998744113   1.969113814   0.046447565


 --- MACRO ITERATION  3 ---
 --------------------------

 2-el. integral transformation level 3: Total CPU and WALL times (sec)      95.609      95.643

 Fock matrix screening setting for this macro iteration: 10^( -9)

 Total MCSCF energy       :          -433.957364604601651  (MACRO    3)

 - Nuclear repulsion      :           415.594620694406615
 - Inactive energy        :          -833.402550239391076
 - Active energy          :           -16.149435059617179

 Norm of total gradient   :             0.089176692605
 -    of CI gradient      :             0.085006959143
 -    of orbital gradient :             0.026949942510
      Virial theorem: -V/T =      1.982564
@    MULPOP   C       2.25; C   _1 -0.09; C   _2 -0.09; C   _1  0.58; C   _2  0.58; C       0.33; N       1.56; O   _1 -1.39; O   _2 -1.39; H   _1 -0.50; 
@             H   _2 -0.50; H   _1 -0.44; H   _2 -0.44; H      -0.45; 

 Residual norm when dim(red L) =   5
 NEO root     CSF        orbital          total
    1     0.01681984     0.00559305     0.01772538 converged

 (NEONEX) NEO vector is converged.

   --- OUTPUT FROM SIRCNO     Keyword = FD+NO 


 Occupations of CAS natural orbitals:

 Symmetry  1 ( irrep A1  in C2v )

   1.978610495

 Symmetry  2 ( irrep B1  in C2v )

   0.022329094

 Symmetry  3 ( irrep B2  in C2v )

   1.997792961   1.988606573

 Symmetry  4 ( irrep A2  in C2v )

   1.999059884   1.972907830   0.040693163


 --- MACRO ITERATION  4 ---
 --------------------------

 2-el. integral transformation level 3: Total CPU and WALL times (sec)      96.109      96.148

 Fock matrix screening setting for this macro iteration: 10^( -9)

 Total MCSCF energy       :          -433.959586180866552  (MACRO    4)

 - Nuclear repulsion      :           415.594620694406615
 - Inactive energy        :          -833.274253713259213
 - Active energy          :           -16.279953162013975

 Norm of total gradient   :             0.021648465567
 -    of CI gradient      :             0.020641255240
 -    of orbital gradient :             0.006526457197
      Virial theorem: -V/T =      1.981162
@    MULPOP   C       2.21; C   _1 -0.09; C   _2 -0.09; C   _1  0.57; C   _2  0.57; C       0.33; N       1.64; O   _1 -1.41; O   _2 -1.41; H   _1 -0.49; 
@             H   _2 -0.49; H   _1 -0.44; H   _2 -0.44; H      -0.45; 

 Residual norm when dim(red L) =  14
 NEO root     CSF        orbital          total
    1     0.00010507     0.00004246     0.00011332 converged

 (NEONEX) NEO vector is converged.

   --- OUTPUT FROM SIRCNO     Keyword = FD+NO 


 Occupations of CAS natural orbitals:

 Symmetry  1 ( irrep A1  in C2v )

   1.980190208

 Symmetry  2 ( irrep B1  in C2v )

   0.020786598

 Symmetry  3 ( irrep B2  in C2v )

   1.997586084   1.986996240

 Symmetry  4 ( irrep A2  in C2v )

   1.999022689   1.969280062   0.046138120


 --- MACRO ITERATION  5 ---
 --------------------------

 2-el. integral transformation level 3: Total CPU and WALL times (sec)      96.766      96.768

 Fock matrix screening setting for this macro iteration: 10^( -9)

 Total MCSCF energy       :          -433.959713102587841  (MACRO    5)

 - Nuclear repulsion      :           415.594620694406615
 - Inactive energy        :          -833.219980632673924
 - Active energy          :           -16.334353164320557

 Norm of total gradient   :             0.000343574073
 -    of CI gradient      :             0.000267742763
 -    of orbital gradient :             0.000215306657
      Virial theorem: -V/T =      1.980895
@    MULPOP   C       2.21; C   _1 -0.09; C   _2 -0.09; C   _1  0.57; C   _2  0.57; C       0.33; N       1.65; O   _1 -1.41; O   _2 -1.41; H   _1 -0.49; 
@             H   _2 -0.49; H   _1 -0.44; H   _2 -0.44; H      -0.45; 

 Residual norm when dim(red L) =  10
 NEO root     CSF        orbital          total
    1     0.00000764     0.00000399     0.00000862 converged

 (NEONEX) NEO vector is converged.

   --- OUTPUT FROM SIRCNO     Keyword = FD+NO 


 Occupations of CAS natural orbitals:

 Symmetry  1 ( irrep A1  in C2v )

   1.980217212

 Symmetry  2 ( irrep B1  in C2v )

   0.020757239

 Symmetry  3 ( irrep B2  in C2v )

   1.997589975   1.986985302

 Symmetry  4 ( irrep A2  in C2v )

   1.999025039   1.969272306   0.046152926


 --- MACRO ITERATION  6 ---
 --------------------------

 2-el. integral transformation level 3: Total CPU and WALL times (sec)      95.672      95.675

 Fock matrix screening setting for this macro iteration: 10^( -9)

 Total MCSCF energy       :          -433.959713199982787  (MACRO    6)

 - Nuclear repulsion      :           415.594620694406615
 - Inactive energy        :          -833.218109120846066
 - Active energy          :           -16.336224773543343

 Norm of total gradient   :             0.000008648517
 -    of CI gradient      :             0.000007667163
 -    of orbital gradient :             0.000004001433
      Virial theorem: -V/T =      1.980885
@    MULPOP   C       2.21; C   _1 -0.09; C   _2 -0.09; C   _1  0.57; C   _2  0.57; C       0.33; N       1.65; O   _1 -1.41; O   _2 -1.41; H   _1 -0.49; 
@             H   _2 -0.49; H   _1 -0.44; H   _2 -0.44; H      -0.45; 

 *** Optimization control: MCSCF converged ***
     Number of macro iterations used            6
     Number of micro iterations used           34
     Total number of CPU seconds used      2011.02

 CPU and wall time for MCSCF :    2011.016    2011.639


                     .----------------------------------------.
                     | --- SIRIUS OPTIMIZATION STATISTICS --- |
                     `----------------------------------------'


 
     Date and time (Linux)  : Sat Jan 11 15:51:53 2020
     Host name              : Lab2-333-NPs                            


  ITER ITMIC     EMCSCF           GRDNRM        RATIO      STPLNG
 ---------------------------------------------------------------------
    1    4   -433.927439886278   0.4229204024  0.000000   0.6991961235
    2    7   -433.946886454257   0.0636589198  0.891708   0.7437404531
    3    3   -433.957364604602   0.0891766926  0.560624   0.2281096026
    4   12   -433.959586180867   0.0216484656  1.052535   0.0437816664
    5    8   -433.959713102588   0.0003435741  1.008218   0.0014452991
    6    0   -433.959713199983   0.0000086485  1.001729   0.0000000000


  ITER  INDGCM  GCIMAX      GCINRM     INDGOM  GOBMAX      GOBNRM      GRDNRM
 ------------------------------------------------------------------------------
    1     25    0.002496    0.004660   2644   -0.059643    0.422895    0.422920
    2     26   -0.022930    0.025341   1545    0.009937    0.058398    0.063659
    3     26    0.081870    0.085007   1608   -0.006327    0.026950    0.089177
    4     26    0.012623    0.020641   1582   -0.001326    0.006526    0.021648
    5     26    0.000159    0.000268   2476    0.000073    0.000215    0.000344
    6     44    0.000004    0.000008   1603   -0.000001    0.000004    0.000009


  ITER ITMIC NCLIN NOLIN   TIMMAC    TIMITR    TIMMIC    TIMLIN    TIMMIC/ITMIC
 ------------------------------------------------------------------------------

    1     4     1     3    266.48     96.06    141.89    113.31     35.47
    2     7     3     5    352.73     95.66    228.56    200.05     32.65
    3     3     1     3    241.80     95.61    117.66     89.08     39.22
    4    12     5     8    493.42     96.11    368.80    339.88     30.73
    5     8     3     6    382.89     96.77    257.61    229.14     32.20
    6     0     0     0    124.31     95.67      0.00      0.00


 ITER         EMY                 EACTIV              EMCSCF

    1   -834.126710292080    -15.395350288605   -433.927439886278
    2   -833.855597380255    -15.685909768409   -433.946886454257
    3   -833.402550239391    -16.149435059617   -433.957364604602
    4   -833.274253713259    -16.279953162014   -433.959586180867
    5   -833.219980632674    -16.334353164321   -433.959713102588
    6   -833.218109120846    -16.336224773543   -433.959713199983


 ITER         DEPRED              DEACT               RATIO

    1      0.000000000000      0.000000000000      0.000000000000
    2     -0.021808224410     -0.019446567978      0.891707991107
    3     -0.018690164953     -0.010478150345      0.560623748979
    4     -0.002110691301     -0.002221576265      1.052534903676
    5     -0.000125887160     -0.000126921721      1.008218162707
    6     -0.000000097227     -0.000000097395      1.001728638903


 ITER    BETA           GAMMA             STPLNG              RTRUST

    1      1.07439917  1.00000000      0.699196123547      0.700000000000
    2      1.68546088  1.00000000      0.743740453127      0.700000000000
    3      0.20000000  1.00000000      0.228109602632      0.700000000000
    4      0.20000000  1.00000000      0.043781666420      0.700000000000
    5      0.20000000  1.00000000      0.001445299088      0.700000000000
    6      0.00000000  0.00000000      0.000000000000      0.700000000000


 Reduced L root no.  1
 ITER         EVAL              EVEC(1)           EVEC(2)           EVEC(3)
 ----------------------------------------------------------------------------
    1   -0.032185082319    0.799533187837   -0.571769483947   -0.172976739747
    2   -0.041296654360   -0.623615919822   -0.026576237137    0.762984649641
    3   -0.000168504585    0.998960941893   -0.004042792148   -0.039068970967
    4   -0.000010070201    0.999961665518   -0.002058640473   -0.007153682731
    5   -0.000000007778    0.999999958222   -0.000023332673   -0.000240074019
    6    0.000000000000    0.000000000000    0.000000000000    0.000000000000


                       .-----------------------------------.
                       | --- Final results from SIRIUS --- |
                       `-----------------------------------'


@    Spin multiplicity:           1
@    Spatial symmetry:            1 ( irrep  A1  in C2v )
@    Total charge of molecule:    0
@    State number:                1

@    Final MCSCF energy:         -433.959713199983                 
@    Nuclear repulsion:           415.594620694407
@    Electronic energy:          -849.554333894389

@    Final gradient norm:           0.000008648517

 
     Date and time (Linux)  : Sat Jan 11 15:51:53 2020
     Host name              : Lab2-333-NPs                            

 Occupancies of natural orbitals
 -------------------------------

 Symmetry 1  ( A1 ) -- Total occupation in this symmetry is  31.980217212

   2.000000000   2.000000000   2.000000000   2.000000000   2.000000000
   2.000000000   2.000000000   2.000000000   2.000000000   2.000000000
   2.000000000   2.000000000   2.000000000   2.000000000   2.000000000
   1.980217212

 Symmetry 2  ( B1 ) -- Total occupation in this symmetry is  20.020757239

   2.000000000   2.000000000   2.000000000   2.000000000   2.000000000
   2.000000000   2.000000000   2.000000000   2.000000000   2.000000000
   0.020757239

 Symmetry 3  ( B2 ) -- Total occupation in this symmetry is   7.984575278

   2.000000000   2.000000000   1.997589975   1.986985302

 Symmetry 4  ( A2 ) -- Total occupation in this symmetry is   4.014450271

   1.999025039   1.969272306   0.046152926

File label for MO orbitals:  11Jan20   (CNOORB)

 (Only coefficients > 0.0100 are printed.)

 Molecular orbitals for symmetry species 1  (A1 )
 ------------------------------------------------

    Orbital         6        7        8        9       10       11       12
   1 C   :1s     0.0002  -0.0000  -0.0161   0.0111   0.0076  -0.0071  -0.0004
   2 C   :1s     0.0009   0.0202   0.4908  -0.3093  -0.2468   0.2169  -0.2319
   3 C   :1s    -0.0159  -0.0378   0.0129  -0.1304  -0.2372   0.4034   0.2333
   5 C   :1s    -0.0253  -0.0045  -0.6188  -0.0946   0.0944  -0.2166   0.0754
   6 C   :2pz   -0.0001  -0.0062  -0.0396  -0.1464   0.1733   0.2147   0.3607
   7 C   :2pz    0.0059  -0.2428   0.0034   0.1202   0.0716  -0.1940  -0.1894
   9 C   :2pz   -0.0006   0.1173   0.1044   0.1162   0.1552  -0.1560  -0.1231
  10 C   :3d0    0.0000  -0.0016   0.0085  -0.0147   0.0117   0.0227   0.0278
  11 C   :3d2+  -0.0001  -0.0004   0.0144  -0.0044  -0.0144  -0.0004  -0.0113
  12 C   :3d0   -0.0025  -0.0801  -0.0757   0.0465   0.0228  -0.1500  -0.1425
  13 C   :3d2+   0.0012   0.0196   0.0544  -0.0182  -0.0304   0.0932   0.0736
  14 C   :1s    -0.0060  -0.0013  -0.0127  -0.0004   0.0078   0.0086  -0.0002
  15 C   :1s     0.0006  -0.0002   0.3447   0.0221  -0.2276  -0.2212   0.0251
  16 C   :1s    -0.0105  -0.0465  -0.1304  -0.0607   0.0255  -0.1763  -0.0913
  18 C   :1s     0.0116  -0.0211   0.3496   0.2575   0.1102   0.0999   0.0160
  19 C   :2px    0.0001   0.0053   0.0978  -0.0337  -0.0666   0.0699  -0.2684
  20 C   :2pz   -0.0001   0.0034  -0.0132  -0.1210  -0.0498   0.1285  -0.0872
  21 C   :2px    0.0053  -0.0408  -0.0305   0.0350   0.0893  -0.1522   0.0625
  22 C   :2pz    0.0091  -0.0638  -0.0793   0.2076   0.1689  -0.1633  -0.1351
  25 C   :2px    0.0046  -0.0070   0.0696   0.0059  -0.0390   0.0151   0.0097
  26 C   :2pz    0.0028  -0.0314  -0.0392  -0.0892  -0.0811   0.0416   0.0107
  27 C   :3d0   -0.0001  -0.0005   0.0046   0.0067   0.0057  -0.0050   0.0159
  28 C   :3d1+   0.0001  -0.0002   0.0074  -0.0103  -0.0049   0.0054   0.0003
[...]



 ---  SOLVING SETS OF LINEAR EQUATIONS FOR LINEAR RESPONSE PROPERTIES ---

 Operator symmetry = 4  ( A2 ); triplet =   F


 ** RSPCTL MICROITERATION NUMBER    1

       No.  Residual tot.,    conf., and orb.    Bnorm      Frequency 
      ----------------------------------------------------------------
         1    6.54715D+00  4.50D-01  6.53D+00  5.83D+01    0.00000D+00

 ** RSPCTL MICROITERATION NUMBER    2

       No.  Residual tot.,    conf., and orb.    Bnorm      Frequency 
      ----------------------------------------------------------------
         1    1.85373D+00  5.20D-01  1.78D+00  6.31D+01    0.00000D+00

 ** RSPCTL MICROITERATION NUMBER    3

       No.  Residual tot.,    conf., and orb.    Bnorm      Frequency 
      ----------------------------------------------------------------
         1    7.61755D-01  5.48D-01  5.30D-01  6.43D+01    0.00000D+00

 ** RSPCTL MICROITERATION NUMBER    4

       No.  Residual tot.,    conf., and orb.    Bnorm      Frequency 
      ----------------------------------------------------------------
         1    5.85630D-01  7.70D-02  5.81D-01  6.43D+01    0.00000D+00

 ** RSPCTL MICROITERATION NUMBER    5

       No.  Residual tot.,    conf., and orb.    Bnorm      Frequency 
      ----------------------------------------------------------------
         1    4.34025D-01  1.32D-01  4.13D-01  6.67D+01    0.00000D+00

 ** RSPCTL MICROITERATION NUMBER    6

       No.  Residual tot.,    conf., and orb.    Bnorm      Frequency 
      ----------------------------------------------------------------
         1    1.55885D+00  4.03D-01  1.51D+00  1.03D+02    0.00000D+00

 ** RSPCTL MICROITERATION NUMBER    7

 *** INFO, negative eigenvalues in reduced matrix. Symmetry  4,  triplet       F Dimension of reduced matrix =    16

 GP * SOLUTION vector at frequency     0.00000 a.u.
 after    8 linear transformations is      1.95940934D+03
 INERTIA (POS,ZER,NEG) of reduced matrix is   15    0    1
 Determinant of reduced matrix is -5.39 * 10 **-15.0

       No.  Residual tot.,    conf., and orb.    Bnorm      Frequency 
      ----------------------------------------------------------------
         1    9.58637D-01  3.24D-01  9.02D-01  1.20D+02    0.00000D+00

 ** RSPCTL MICROITERATION NUMBER    8

 *** INFO, negative eigenvalues in reduced matrix. Symmetry  4,  triplet       F Dimension of reduced matrix =    18

 GP * SOLUTION vector at frequency     0.00000 a.u.
 after    9 linear transformations is      1.95983561D+03
 INERTIA (POS,ZER,NEG) of reduced matrix is   17    0    1
 Determinant of reduced matrix is -2.71 * 10 **-17.0

       No.  Residual tot.,    conf., and orb.    Bnorm      Frequency 
      ----------------------------------------------------------------
         1    3.21413D-01  2.41D-01  2.13D-01  9.64D+01    0.00000D+00

 ** RSPCTL MICROITERATION NUMBER    9

 *** INFO, negative eigenvalues in reduced matrix. Symmetry  4,  triplet       F Dimension of reduced matrix =    20

 GP * SOLUTION vector at frequency     0.00000 a.u.
 after   10 linear transformations is      1.95988440D+03
 INERTIA (POS,ZER,NEG) of reduced matrix is   19    0    1
 Determinant of reduced matrix is -3.08 * 10 **-17.0

       No.  Residual tot.,    conf., and orb.    Bnorm      Frequency 
      ----------------------------------------------------------------
         1    2.38487D-01  5.64D-02  2.32D-01  9.39D+01    0.00000D+00

 ** RSPCTL MICROITERATION NUMBER   10

 *** INFO, negative eigenvalues in reduced matrix. Symmetry  4,  triplet       F Dimension of reduced matrix =    22

 GP * SOLUTION vector at frequency     0.00000 a.u.
 after   11 linear transformations is      1.95992555D+03
 INERTIA (POS,ZER,NEG) of reduced matrix is   21    0    1
 Determinant of reduced matrix is -2.67 * 10 **-19.0

       No.  Residual tot.,    conf., and orb.    Bnorm      Frequency 
      ----------------------------------------------------------------
         1    1.16257D-01  6.48D-02  9.65D-02  9.21D+01    0.00000D+00

 ** RSPCTL MICROITERATION NUMBER   11

 *** INFO, negative eigenvalues in reduced matrix. Symmetry  4,  triplet       F Dimension of reduced matrix =    24

 GP * SOLUTION vector at frequency     0.00000 a.u.
 after   12 linear transformations is      1.95993444D+03
 INERTIA (POS,ZER,NEG) of reduced matrix is   23    0    1
 Determinant of reduced matrix is -1.28 * 10 **-21.0

       No.  Residual tot.,    conf., and orb.    Bnorm      Frequency 
      ----------------------------------------------------------------
         1    9.04081D-02  6.55D-02  6.23D-02  9.19D+01    0.00000D+00

 *** THE REQUESTED    1 SOLUTION VECTORS CONVERGED

 Convergence of RSP solution vectors, threshold = 1.00D-03
 ---------------------------------------------------------------
 (dimension of paired reduced space:   24)
 RSP solution vector no.    1; norm of residual   9.84D-04

 *** RSPCTL MICROITERATIONS CONVERGED
    XDIPLEN     YDIPLEN      freq1     freq2                Norm
 ---------------------------------------------------------------
                          0.058400 -0.058400         91.85899657


 Perturbation symmetry.     KSYMOP:       1
 Perturbation spin symmetry.TRPLET:       F
 Orbital variables.         KZWOPT:    2762
 Configuration variables.   KZCONF:     115
 Total number of variables. KZVAR :    2877


 CRLRV2 -- linear response calc for sym:  1
 CRLRV2 -- operator label1: YDIPLEN 
 CRLRV2 -- operator label2: YDIPLEN 
 CRLRV2 -- freqr1 :   5.840000D-02
 CRLRV2 -- freqr2 :   5.840000D-02



 ---  SOLVING SETS OF LINEAR EQUATIONS FOR LINEAR RESPONSE PROPERTIES ---

 Operator symmetry = 1  ( A1 ); triplet =   F


 ** RSPCTL MICROITERATION NUMBER    1

       No.  Residual tot.,    conf., and orb.    Bnorm      Frequency 
      ----------------------------------------------------------------
         1    1.76173D+01  1.13D+00  1.76D+01  9.82D+01    1.16800D-01

 ** RSPCTL MICROITERATION NUMBER    2

       No.  Residual tot.,    conf., and orb.    Bnorm      Frequency 
      ----------------------------------------------------------------
         1    7.97852D+00  8.53D-01  7.93D+00  1.05D+02    1.16800D-01

 ** RSPCTL MICROITERATION NUMBER    3

       No.  Residual tot.,    conf., and orb.    Bnorm      Frequency 
      ----------------------------------------------------------------
         1    3.04900D+00  1.07D+00  2.85D+00  1.07D+02    1.16800D-01

 ** RSPCTL MICROITERATION NUMBER    4

       No.  Residual tot.,    conf., and orb.    Bnorm      Frequency 
      ----------------------------------------------------------------
         1    1.91587D+00  1.16D+00  1.52D+00  1.08D+02    1.16800D-01

 ** RSPCTL MICROITERATION NUMBER    5

       No.  Residual tot.,    conf., and orb.    Bnorm      Frequency 
      ----------------------------------------------------------------
         1    1.45197D+00  1.22D+00  7.86D-01  1.08D+02    1.16800D-01

 ** RSPCTL MICROITERATION NUMBER    6

       No.  Residual tot.,    conf., and orb.    Bnorm      Frequency 
      ----------------------------------------------------------------
         1    1.49481D+00  2.62D-01  1.47D+00  1.08D+02    1.16800D-01

 ** RSPCTL MICROITERATION NUMBER    7

       No.  Residual tot.,    conf., and orb.    Bnorm      Frequency 
      ----------------------------------------------------------------
         1    7.00609D-01  2.64D-01  6.49D-01  1.08D+02    1.16800D-01

 ** RSPCTL MICROITERATION NUMBER    8

       No.  Residual tot.,    conf., and orb.    Bnorm      Frequency 
      ----------------------------------------------------------------
         1    3.46614D-01  2.63D-01  2.26D-01  1.08D+02    1.16800D-01

 ** RSPCTL MICROITERATION NUMBER    9

       No.  Residual tot.,    conf., and orb.    Bnorm      Frequency 
      ----------------------------------------------------------------
         1    2.48796D-01  7.72D-02  2.37D-01  1.08D+02    1.16800D-01

 ** RSPCTL MICROITERATION NUMBER   10

       No.  Residual tot.,    conf., and orb.    Bnorm      Frequency 
      ----------------------------------------------------------------
         1    1.41805D-01  7.65D-02  1.19D-01  1.08D+02    1.16800D-01

 ** RSPCTL MICROITERATION NUMBER   11

       No.  Residual tot.,    conf., and orb.    Bnorm      Frequency 
      ----------------------------------------------------------------
         1    8.30542D-02  7.35D-02  3.87D-02  1.08D+02    1.16800D-01

 *** THE REQUESTED    1 SOLUTION VECTORS CONVERGED

 Convergence of RSP solution vectors, threshold = 1.00D-03
 ---------------------------------------------------------------
 (dimension of paired reduced space:   24)
 RSP solution vector no.    1; norm of residual   7.70D-04

 *** RSPCTL MICROITERATIONS CONVERGED
    YDIPLEN     YDIPLEN      freq1     freq2                Norm
 ---------------------------------------------------------------
                          0.058400  0.058400        107.88109342
  Time used in CRVEC2     is       2 hours  7 minutes 24 seconds


 ----- CALCULATING CONTRIBUTIONS TO SECOND HYPERPOLARIZABILITY -----


   Contribution                Term         Accumulated
 ------------------------------------------------------
 Na T[4] Nb Nc Nd    -8651.99753253      -8651.99753253
 Na T[3] Nx Nyz      11717.27853257       3065.28100004
 Na X[3] Ny Nz       20390.06496688      23455.34596692
 Nx A[3] Ny Nz        6796.68832229      30252.03428922
 Na X[2] Nyz        -34237.90511078      -3985.87082156
 Nx A[2] Nyz        -33960.85342339     -37946.72424495

@ Cubic response function value in a.u. for
@ A operator, symmetry, frequency:   ZDIPLEN    1 -0.058400
@ B operator, symmetry, frequency:   ZDIPLEN    1  0.058400
@ C operator, symmetry, frequency:   ZDIPLEN    1 -0.058400
@ D operator, symmetry, frequency:   ZDIPLEN    1  0.058400

@ << A; B, C, D >>  =      -37946.72424495



   Contribution                Term         Accumulated
 ------------------------------------------------------
 Na T[4] Nb Nc Nd     -731.93507458       -731.93507458
 Na T[3] Nx Nyz       4529.74463725       3797.80956267
 Na X[3] Ny Nz        4400.76959638       8198.57915905
 Nx A[3] Ny Nz         330.68481824       8529.26397729
 Na X[2] Nyz        -27382.14172636     -18852.87774907
 Nx A[2] Nyz         17019.99241652      -1832.88533255

@ Cubic response function value in a.u. for
@ A operator, symmetry, frequency:   XDIPLEN    2 -0.058400
@ B operator, symmetry, frequency:   XDIPLEN    2  0.058400
@ C operator, symmetry, frequency:   ZDIPLEN    1 -0.058400
@ D operator, symmetry, frequency:   ZDIPLEN    1  0.058400

@ << A; B, C, D >>  =       -1832.88533255



   Contribution                Term         Accumulated
 ------------------------------------------------------
 Na T[4] Nb Nc Nd     -518.99844617       -518.99844617
 Na T[3] Nx Nyz       1218.86118475        699.86273859
 Na X[3] Ny Nz         843.21043514       1543.07317372
 Nx A[3] Ny Nz         309.15476421       1852.22793793
 Na X[2] Nyz         -4228.27387068      -2376.04593274
 Nx A[2] Nyz         -5820.51353104      -8196.55946379

@ Cubic response function value in a.u. for
@ A operator, symmetry, frequency:   YDIPLEN    3 -0.058400
@ B operator, symmetry, frequency:   YDIPLEN    3  0.058400
@ C operator, symmetry, frequency:   ZDIPLEN    1 -0.058400
@ D operator, symmetry, frequency:   ZDIPLEN    1  0.058400

@ << A; B, C, D >>  =       -8196.55946379



   Contribution                Term         Accumulated
 ------------------------------------------------------
 Na T[4] Nb Nc Nd     -558.89197948       -558.89197948
 Na T[3] Nx Nyz       4290.90788859       3732.01590911
 Na X[3] Ny Nz        3859.97292070       7591.98882980
 Nx A[3] Ny Nz         -24.99789046       7566.99093934
 Na X[2] Nyz        -28699.60934029     -21132.61840095
 Nx A[2] Nyz         19869.82667766      -1262.79172329

@ Cubic response function value in a.u. for
@ A operator, symmetry, frequency:   XDIPLEN    2 -0.058400
@ B operator, symmetry, frequency:   ZDIPLEN    1  0.058400
@ C operator, symmetry, frequency:   XDIPLEN    2 -0.058400
@ D operator, symmetry, frequency:   ZDIPLEN    1  0.058400

@ << A; B, C, D >>  =       -1262.79172329



   Contribution                Term         Accumulated
 ------------------------------------------------------
 Na T[4] Nb Nc Nd     -453.13127368       -453.13127368
 Na T[3] Nx Nyz       1262.77371131        809.64243763
 Na X[3] Ny Nz         744.14929992       1553.79173755
 Nx A[3] Ny Nz         240.31180776       1794.10354531
 Na X[2] Nyz         -4229.06522522      -2434.96167991
 Nx A[2] Nyz         -5640.33464373      -8075.29632364

@ Cubic response function value in a.u. for
@ A operator, symmetry, frequency:   YDIPLEN    3 -0.058400
@ B operator, symmetry, frequency:   ZDIPLEN    1  0.058400
@ C operator, symmetry, frequency:   YDIPLEN    3 -0.058400
@ D operator, symmetry, frequency:   ZDIPLEN    1  0.058400

@ << A; B, C, D >>  =       -8075.29632364



   Contribution                Term         Accumulated
 ------------------------------------------------------
 Na T[4] Nb Nc Nd     -183.92786135       -183.92786135
 Na T[3] Nx Nyz      -9556.72669305      -9740.65455440
 Na X[3] Ny Nz        3528.28561238      -6212.36894202
 Nx A[3] Ny Nz        2487.75073482      -3724.61820720
 Na X[2] Nyz         27274.45891507      23549.84070787
 Nx A[2] Nyz        -24815.93008551      -1266.08937764

@ Cubic response function value in a.u. for
@ A operator, symmetry, frequency:   ZDIPLEN    1 -0.058400
@ B operator, symmetry, frequency:   XDIPLEN    2  0.058400
@ C operator, symmetry, frequency:   ZDIPLEN    1 -0.058400
@ D operator, symmetry, frequency:   XDIPLEN    2  0.058400

@ << A; B, C, D >>  =       -1266.08937764



   Contribution                Term         Accumulated
 ------------------------------------------------------
 Na T[4] Nb Nc Nd    -2152.85942165      -2152.85942165
 Na T[3] Nx Nyz      -6152.90161683      -8305.76103847
 Na X[3] Ny Nz       15651.19600014       7345.43496167
 Nx A[3] Ny Nz        5217.06533338      12562.50029505
 Na X[2] Nyz         -9789.21979919       2773.28049586
 Nx A[2] Nyz        -12389.67282263      -9616.39232677

@ Cubic response function value in a.u. for
@ A operator, symmetry, frequency:   XDIPLEN    2 -0.058400
@ B operator, symmetry, frequency:   XDIPLEN    2  0.058400
@ C operator, symmetry, frequency:   XDIPLEN    2 -0.058400
@ D operator, symmetry, frequency:   XDIPLEN    2  0.058400

@ << A; B, C, D >>  =       -9616.39232677



   Contribution                Term         Accumulated
 ------------------------------------------------------
 Na T[4] Nb Nc Nd     -260.26718624       -260.26718624
 Na T[3] Nx Nyz       1081.65123941        821.38405317
 Na X[3] Ny Nz         425.08928762       1246.47334079
 Nx A[3] Ny Nz          87.59519713       1334.06853792
 Na X[2] Nyz         -3089.17415926      -1755.10562134
 Nx A[2] Nyz         -4202.97206375      -5958.07768509

@ Cubic response function value in a.u. for
@ A operator, symmetry, frequency:   YDIPLEN    3 -0.058400
@ B operator, symmetry, frequency:   YDIPLEN    3  0.058400
@ C operator, symmetry, frequency:   XDIPLEN    2 -0.058400
@ D operator, symmetry, frequency:   XDIPLEN    2  0.058400

@ << A; B, C, D >>  =       -5958.07768509



   Contribution                Term         Accumulated
 ------------------------------------------------------
 Na T[4] Nb Nc Nd     -238.15965688       -238.15965688
 Na T[3] Nx Nyz       1140.20154927        902.04189239
 Na X[3] Ny Nz         374.40275392       1276.44464631
 Nx A[3] Ny Nz          56.85069336       1333.29533967
 Na X[2] Nyz         -3073.52731246      -1740.23197279
 Nx A[2] Nyz         -4066.88204857      -5807.11402136

@ Cubic response function value in a.u. for
@ A operator, symmetry, frequency:   YDIPLEN    3 -0.058400
@ B operator, symmetry, frequency:   XDIPLEN    2  0.058400
@ C operator, symmetry, frequency:   YDIPLEN    3 -0.058400
@ D operator, symmetry, frequency:   XDIPLEN    2  0.058400

@ << A; B, C, D >>  =       -5807.11402136



   Contribution                Term         Accumulated
 ------------------------------------------------------
 Na T[4] Nb Nc Nd     -414.27645060       -414.27645060
 Na T[3] Nx Nyz       1309.28623014        895.00977955
 Na X[3] Ny Nz         660.19752128       1555.20730083
 Nx A[3] Ny Nz         227.80379931       1783.01110014
 Na X[2] Nyz         -5564.66615006      -3781.65504992
 Nx A[2] Nyz         -4292.44410605      -8074.09915597

@ Cubic response function value in a.u. for
@ A operator, symmetry, frequency:   ZDIPLEN    1 -0.058400
@ B operator, symmetry, frequency:   YDIPLEN    3  0.058400
@ C operator, symmetry, frequency:   ZDIPLEN    1 -0.058400
@ D operator, symmetry, frequency:   YDIPLEN    3  0.058400

@ << A; B, C, D >>  =       -8074.09915597



   Contribution                Term         Accumulated
 ------------------------------------------------------
 Na T[4] Nb Nc Nd     -181.72473869       -181.72473869
 Na T[3] Nx Nyz       1122.11931394        940.39457525
 Na X[3] Ny Nz         177.81215066       1118.20672591
 Nx A[3] Ny Nz         127.22094150       1245.42766741
 Na X[2] Nyz         -4053.50739110      -2808.07972369
 Nx A[2] Nyz         -2999.48293294      -5807.56265663

@ Cubic response function value in a.u. for
@ A operator, symmetry, frequency:   XDIPLEN    2 -0.058400
@ B operator, symmetry, frequency:   YDIPLEN    3  0.058400
@ C operator, symmetry, frequency:   XDIPLEN    2 -0.058400
@ D operator, symmetry, frequency:   YDIPLEN    3  0.058400

@ << A; B, C, D >>  =       -5807.56265663



   Contribution                Term         Accumulated
 ------------------------------------------------------
 Na T[4] Nb Nc Nd     -462.62052548       -462.62052548
 Na T[3] Nx Nyz       2643.06468894       2180.44416346
 Na X[3] Ny Nz        1510.13453590       3690.57869936
 Nx A[3] Ny Nz         503.37817863       4193.95687799
 Na X[2] Nyz         -8118.89334212      -3924.93646413
 Nx A[2] Nyz         -8111.45718921     -12036.39365334

@ Cubic response function value in a.u. for
@ A operator, symmetry, frequency:   YDIPLEN    3 -0.058400
@ B operator, symmetry, frequency:   YDIPLEN    3  0.058400
@ C operator, symmetry, frequency:   YDIPLEN    3 -0.058400
@ D operator, symmetry, frequency:   YDIPLEN    3  0.058400

@ << A; B, C, D >>  =      -12036.39365334



  Summary of gamma values for a set of frequencies
 -------------------------------------------------

@ B-freq:  0.058400
@ C-freq: -0.058400
@ D-freq:  0.058400

@ gamma(X;X,X,X)       9616.3923
@ gamma(X;X,Y,Y)       5958.0777
@ gamma(X;Y,Y,X)       5958.0777
@ gamma(X;Y,X,Y)       5807.5627
@ gamma(X;X,Z,Z)       1832.8853
@ gamma(X;Z,Z,X)       1832.8853
@ gamma(X;Z,X,Z)       1262.7917
@ gamma(Y;Y,X,X)       5958.0777
@ gamma(Y;X,X,Y)       5958.0777
@ gamma(Y;X,Y,X)       5807.1140
@ gamma(Y;Y,Y,Y)      12036.3937
@ gamma(Y;Y,Z,Z)       8196.5595
@ gamma(Y;Z,Z,Y)       8196.5595
@ gamma(Y;Z,Y,Z)       8075.2963
@ gamma(Z;Z,X,X)       1832.8853
@ gamma(Z;X,X,Z)       1832.8853
@ gamma(Z;X,Z,X)       1266.0894
@ gamma(Z;Z,Y,Y)       8196.5595
@ gamma(Z;Y,Y,Z)       8196.5595
@ gamma(Z;Y,Z,Y)       8074.0992
@ gamma(Z;Z,Z,Z)      37946.7242

@ Averaged gamma parallel to the applied field is     18202.771591

  Total CPU  time used in RESPONSE:   6 hours 39 minutes 17 seconds
  Total wall time used in RESPONSE:   6 hours 39 minutes 25 seconds


                   .-------------------------------------------.
                   | End of Dynamic Property Section (RESPONS) |
                   `-------------------------------------------'

  Total CPU  time used in DALTON:   7 hours 26 minutes 22 seconds
  Total wall time used in DALTON:   7 hours 26 minutes 32 seconds

 
     Date and time (Linux)  : Sat Jan 11 22:31:18 2020
     Host name              : Lab2-333-NPs                            
