

     ************************************************************************
     *************** Dalton - An Electronic Structure Program ***************
     ************************************************************************

    This is output from DALTON release Dalton2018.1 (2019)
         ( Web site: http://daltonprogram.org )

   ----------------------------------------------------------------------------

    NOTE:
     
    Dalton is an experimental code for the evaluation of molecular
    properties using (MC)SCF, DFT, CI, and CC wave functions.
    The authors accept no responsibility for the performance of
    the code or for the correctness of the results.
     
    The code (in whole or part) is provided under a licence and
    is not to be reproduced for further distribution without
    the written permission of the authors or their representatives.
     
    See the home page "http://daltonprogram.org" for further information.
     
    If results obtained with this code are published,
    the appropriate citations would be both of:
     
       K. Aidas, C. Angeli, K. L. Bak, V. Bakken, R. Bast,
       L. Boman, O. Christiansen, R. Cimiraglia, S. Coriani,
       P. Dahle, E. K. Dalskov, U. Ekstroem,
       T. Enevoldsen, J. J. Eriksen, P. Ettenhuber, B. Fernandez,
       L. Ferrighi, H. Fliegl, L. Frediani, K. Hald, A. Halkier,
       C. Haettig, H. Heiberg, T. Helgaker, A. C. Hennum,
       H. Hettema, E. Hjertenaes, S. Hoest, I.-M. Hoeyvik,
       M. F. Iozzi, B. Jansik, H. J. Aa. Jensen, D. Jonsson,
       P. Joergensen, J. Kauczor, S. Kirpekar,
       T. Kjaergaard, W. Klopper, S. Knecht, R. Kobayashi, H. Koch,
       J. Kongsted, A. Krapp, K. Kristensen, A. Ligabue,
       O. B. Lutnaes, J. I. Melo, K. V. Mikkelsen, R. H. Myhre,
       C. Neiss, C. B. Nielsen, P. Norman, J. Olsen,
       J. M. H. Olsen, A. Osted, M. J. Packer, F. Pawlowski,
       T. B. Pedersen, P. F. Provasi, S. Reine, Z. Rinkevicius,
       T. A. Ruden, K. Ruud, V. Rybkin, P. Salek, C. C. M. Samson,
       A. Sanchez de Meras, T. Saue, S. P. A. Sauer,
       B. Schimmelpfennig, K. Sneskov, A. H. Steindal,
       K. O. Sylvester-Hvid, P. R. Taylor, A. M. Teale,
       E. I. Tellgren, D. P. Tew, A. J. Thorvaldsen, L. Thoegersen,
       O. Vahtras, M. A. Watson, D. J. D. Wilson, M. Ziolkowski
       and H. Agren,
       "The Dalton quantum chemistry program system",
       WIREs Comput. Mol. Sci. 2014, 4:269–284 (doi: 10.1002/wcms.1172)
     
    and
     
       Dalton, a molecular electronic structure program,
       Release Dalton2018.1 (2019), see http://daltonprogram.org
   ----------------------------------------------------------------------------

    Authors in alphabetical order (major contribution(s) in parenthesis):

  Kestutis Aidas,           Vilnius University,           Lithuania   (QM/MM)
  Celestino Angeli,         University of Ferrara,        Italy       (NEVPT2)
  Keld L. Bak,              UNI-C,                        Denmark     (AOSOPPA, non-adiabatic coupling, magnetic properties)
  Vebjoern Bakken,          University of Oslo,           Norway      (DALTON; geometry optimizer, symmetry detection)
  Radovan Bast,             UiT The Arctic U. of Norway,  Norway      (DALTON installation and execution frameworks)
  Pablo Baudin,             University of Valencia,       Spain       (Cholesky excitation energies)
  Linus Boman,              NTNU,                         Norway      (Cholesky decomposition and subsystems)
  Ove Christiansen,         Aarhus University,            Denmark     (CC module)
  Renzo Cimiraglia,         University of Ferrara,        Italy       (NEVPT2)
  Sonia Coriani,            Technical Univ. of Denmark,   Denmark     (CC module, MCD in RESPONS)
  Janusz Cukras,            University of Trieste,        Italy       (MChD in RESPONS)
  Paal Dahle,               University of Oslo,           Norway      (Parallelization)
  Erik K. Dalskov,          UNI-C,                        Denmark     (SOPPA)
  Thomas Enevoldsen,        Univ. of Southern Denmark,    Denmark     (SOPPA)
  Janus J. Eriksen,         Aarhus University,            Denmark     (Polarizable embedding model, TDA)
  Rasmus Faber,             University of Copenhagen,     Denmark     (Vib.avg. NMR with SOPPA, parallel AO-SOPPA)
  Tobias Fahleson,          KTH Stockholm,                Sweden      (Damped cubic response)
  Berta Fernandez,          U. of Santiago de Compostela, Spain       (doublet spin, ESR in RESPONS)
  Lara Ferrighi,            Aarhus University,            Denmark     (PCM Cubic response)
  Heike Fliegl,             University of Oslo,           Norway      (CCSD(R12))
  Luca Frediani,            UiT The Arctic U. of Norway,  Norway      (PCM)
  Bin Gao,                  UiT The Arctic U. of Norway,  Norway      (Gen1Int library)
  Christof Haettig,         Ruhr-University Bochum,       Germany     (CC module)
  Kasper Hald,              Aarhus University,            Denmark     (CC module)
  Asger Halkier,            Aarhus University,            Denmark     (CC module)
  Frederik Beyer Hansen,    University of Copenhagen,     Denmark     (Parallel AO-SOPPA)
  Erik D. Hedegaard,        Univ. of Southern Denmark,    Denmark     (Polarizable embedding model, QM/MM)
  Hanne Heiberg,            University of Oslo,           Norway      (geometry analysis, selected one-electron integrals)
  Trygve Helgaker,          University of Oslo,           Norway      (DALTON; ABACUS, ERI, DFT modules, London, and much more)
  Alf Christian Hennum,     University of Oslo,           Norway      (Parity violation)
  Hinne Hettema,            University of Auckland,       New Zealand (quadratic response in RESPONS; SIRIUS supersymmetry)
  Eirik Hjertenaes,         NTNU,                         Norway      (Cholesky decomposition)
  Pi A. B. Haase,           University of Copenhagen,     Denmark     (Triplet AO-SOPPA)
  Maria Francesca Iozzi,    University of Oslo,           Norway      (RPA)
  Christoph Jacob           TU Braunschweig               Germany     (Frozen density embedding model)
  Brano Jansik              Technical Univ. of Ostrava    Czech Rep.  (DFT cubic response)
  Hans Joergen Aa. Jensen,  Univ. of Southern Denmark,    Denmark     (DALTON; SIRIUS, RESPONS, ABACUS modules, London, and much more)
  Dan Jonsson,              UiT The Arctic U. of Norway,  Norway      (cubic response in RESPONS module)
  Poul Joergensen,          Aarhus University,            Denmark     (RESPONS, ABACUS, and CC modules)
  Maciej Kaminski,          University of Warsaw,         Poland      (CPPh in RESPONS)
  Joanna Kauczor,           Linkoeping University,        Sweden      (Complex polarization propagator (CPP) module)
  Sheela Kirpekar,          Univ. of Southern Denmark,    Denmark     (Mass-velocity & Darwin integrals)
  Wim Klopper,              KIT Karlsruhe,                Germany     (R12 code in CC, SIRIUS, and ABACUS modules)
  Stefan Knecht,            ETH Zurich,                   Switzerland (Parallel CI and MCSCF)
  Rika Kobayashi,           Australian National Univ.,    Australia   (DIIS in CC, London in MCSCF)
  Henrik Koch,              NTNU,                         Norway      (CC module, Cholesky decomposition)
  Jacob Kongsted,           Univ. of Southern Denmark,    Denmark     (Polarizable embedding model, QM/MM)
  Andrea Ligabue,           University of Modena,         Italy       (CTOCD, AOSOPPA)
  Nanna H. List             Univ. of Southern Denmark,    Denmark     (Polarizable embedding model)
  Ola B. Lutnaes,           University of Oslo,           Norway      (DFT Hessian)
  Juan I. Melo,             University of Buenos Aires,   Argentina   (LRESC, Relativistic Effects on NMR Shieldings)
  Kurt V. Mikkelsen,        University of Copenhagen,     Denmark     (MC-SCRF and QM/MM)
  Rolf H. Myhre,            NTNU,                         Norway      (Subsystems and CC3)
  Christian Neiss,          Univ. Erlangen-Nuernberg,     Germany     (CCSD(R12))
  Christian B. Nielsen,     University of Copenhagen,     Denmark     (QM/MM)
  Patrick Norman,           KTH Stockholm,                Sweden      (Cubic response and complex frequency response in RESPONS)
  Jeppe Olsen,              Aarhus University,            Denmark     (SIRIUS CI/density modules)
  Jogvan Magnus H. Olsen,   Univ. of Southern Denmark,    Denmark     (Polarizable embedding model, QM/MM)
  Anders Osted,             Copenhagen University,        Denmark     (QM/MM)
  Martin J. Packer,         University of Sheffield,      UK          (SOPPA)
  Filip Pawlowski,          Kazimierz Wielki University,  Poland      (CC3)
  Morten N. Pedersen,       Univ. of Southern Denmark,    Denmark     (Polarizable embedding model)
  Thomas B. Pedersen,       University of Oslo,           Norway      (Cholesky decomposition)
  Patricio F. Provasi,      University of Northeastern,   Argentina   (Analysis of coupling constants in localized orbitals)
  Zilvinas Rinkevicius,     KTH Stockholm,                Sweden      (open-shell DFT, ESR)
  Elias Rudberg,            KTH Stockholm,                Sweden      (DFT grid and basis info)
  Torgeir A. Ruden,         University of Oslo,           Norway      (Numerical derivatives in ABACUS)
  Kenneth Ruud,             UiT The Arctic U. of Norway,  Norway      (DALTON; ABACUS magnetic properties and much more)
  Pawel Salek,              KTH Stockholm,                Sweden      (DALTON; DFT code)
  Claire C. M. Samson       University of Karlsruhe       Germany     (Boys localization, r12 integrals in ERI)
  Alfredo Sanchez de Meras, University of Valencia,       Spain       (CC module, Cholesky decomposition)
  Trond Saue,               Paul Sabatier University,     France      (direct Fock matrix construction)
  Stephan P. A. Sauer,      University of Copenhagen,     Denmark     (SOPPA(CCSD), SOPPA prop., AOSOPPA, vibrational g-factors)
  Andre S. P. Gomes,        CNRS/Universite de Lille,     France      (Frozen density embedding model)
  Bernd Schimmelpfennig,    Forschungszentrum Karlsruhe,  Germany     (AMFI module)
  Kristian Sneskov,         Aarhus University,            Denmark     (Polarizable embedding model, QM/MM)
  Arnfinn H. Steindal,      UiT The Arctic U. of Norway,  Norway      (parallel QM/MM, Polarizable embedding model)
  Casper Steinmann,         Univ. of Southern Denmark,    Denmark     (QFIT, Polarizable embedding model)
  K. O. Sylvester-Hvid,     University of Copenhagen,     Denmark     (MC-SCRF)
  Peter R. Taylor,          VLSCI/Univ. of Melbourne,     Australia   (Symmetry handling ABACUS, integral transformation)
  Andrew M. Teale,          University of Nottingham,     England     (DFT-AC, DFT-D)
  David P. Tew,             University of Bristol,        England     (CCSD(R12))
  Olav Vahtras,             KTH Stockholm,                Sweden      (triplet response, spin-orbit, ESR, TDDFT, open-shell DFT)
  Lucas Visscher,           Vrije Universiteit Amsterdam, Netherlands (Frozen density embedding model)
  David J. Wilson,          La Trobe University,          Australia   (DFT Hessian and DFT magnetizabilities)
  Hans Agren,               KTH Stockholm,                Sweden      (SIRIUS module, RESPONS, MC-SCRF solvation model)
 --------------------------------------------------------------------------------

     Date and time (Linux)  : Mon Jan 20 21:11:02 2020
     Host name              : Lab2-333-NPs                            

 * Work memory size             :  1024000000 =  7.629 gigabytes.

 * Directories for basis set searches:
   1) /home/lab333/dalton/build_2018_atlas
   2) /home/lab333/dalton/build_2018_atlas/basis


Compilation information
-----------------------

 Who compiled             | lab333
 Host                     | Lab2-333-NPs
 System                   | Linux-4.4.0-43-Microsoft
 CMake generator          | Unix Makefiles
 Processor                | x86_64
 64-bit integers          | OFF
 MPI                      | OFF
 Fortran compiler         | /usr/bin/gfortran
 Fortran compiler version | GNU Fortran (Ubuntu 7.3.0-27ubuntu1~18.04) 7.3.0
 C compiler               | /usr/bin/gcc
 C compiler version       | gcc (Ubuntu 7.3.0-27ubuntu1~18.04) 7.3.0
 C++ compiler             | /usr/bin/g++
 C++ compiler version     | g++ (Ubuntu 7.3.0-27ubuntu1~18.04) 7.3.0
 BLAS                     | /usr/lib/x86_64-linux-gnu/libf77blas.so;/usr/lib/x
                          | 86_64-linux-gnu/libcblas.so;/usr/lib/x86_64-linux-
                          | gnu/libatlas.so
 LAPACK                   | /usr/lib/x86_64-linux-gnu/libatlas.so;/usr/lib/x86
                          | _64-linux-gnu/atlas/liblapack.so
 Static linking           | OFF
 Last Git revision        | da625bf48c74028e805616daee31bc5d76b3a20d
 Git branch               | (HEAD detached at Dalton2018.1)
 Configuration time       | 2019-01-18 10:20:51.437510


   Content of the .dal input file
 ----------------------------------

**DALTON INPUT
.RUN RESPONSE
.DIRECT
**WAVE FUNCTIONS
.HF
.MP2
.MCSCF
*CONFIGURATION INPUT
.SPIN MULTIPLICITY
3
.SYMMETRY
1
.INACTIVE ORBITALS
15 10 2 0
.CAS SPACE
1 1 2 3
.ELECTRONS
10
*ORBITAL INPUT
.MOSTART
.HUCKEL
*OPTIMIZATION
.DETERMINANTS
.STATE
2
*CI VECTOR
.PLUS COMBINATIONS
**RESPONSE
*CUBIC
.DIPLEN
.BFREQ
1
0.0584
.CFREQ
1
-0.0584
.DFREQ
1
0.0584
**END OF DALTON INPUT


   Content of the .mol file
 ----------------------------

BASIS
aug-cc-pCVDZ
 nitrobenzene
 Generated by the Dalton Input File Plugin for Avogadro
Atomtypes=4 Angstrom Generators=2 X Y
Charge=6.0 Atoms=4
C        0.0000000000            0.0000000000           -0.0265759623
C       -1.2190534920            0.0000000000           -0.6979856948
C       -1.2105095870            0.0000000000           -2.0897394457
C        0.0000000000            0.0000000000           -2.7841484631
Charge=7.0 Atoms=1
N        0.0000000000            0.0000000000            1.4549291696
Charge=8.0 Atoms=1
O       0.5478330858265155            0.0            2.5503394826606645
Charge=1.0 Atoms=3
H       -2.1410602955            0.0000000000           -0.1327964319
H       -2.1492827751            0.0000000000           -2.6311811056
H        0.0000000000            0.0000000000           -3.8683953478


       *******************************************************************
       *********** Output from DALTON general input processing ***********
       *******************************************************************

 --------------------------------------------------------------------------------
   Overall default print level:    0
   Print level for DALTON.STAT:    1

    AO-direct calculation (in sections where implemented)
    HERMIT 1- and 2-electron integral sections will be executed
    "Old" integral transformation used (limited to max 255 basis functions)
    Wave function sections will be executed (SIRIUS module)
    Dynamic molecular response properties section will be executed (RESPONSE module)
 --------------------------------------------------------------------------------


   ****************************************************************************
   *************** Output of molecule and basis set information ***************
   ****************************************************************************


    The two title cards from your ".mol" input:
    ------------------------------------------------------------------------
 1:  nitrobenzene                                                           
 2:  Generated by the Dalton Input File Plugin for Avogadro                 
    ------------------------------------------------------------------------

  Coordinates are entered in Angstrom and converted to atomic units.
          - Conversion factor : 1 bohr = 0.52917721 A

  Atomic type no.    1
  --------------------
  Nuclear charge:   6.00000
  Number of symmetry independent centers:    4
  Number of basis sets to read;    2
  Basis set file used for this atomic type with Z =   6 :
     "/home/lab333/dalton/build_2018_atlas/basis/aug-cc-pCVDZ"

  Atomic type no.    2
  --------------------
  Nuclear charge:   7.00000
  Number of symmetry independent centers:    1
  Number of basis sets to read;    2
  Basis set file used for this atomic type with Z =   7 :
     "/home/lab333/dalton/build_2018_atlas/basis/aug-cc-pCVDZ"

  Atomic type no.    3
  --------------------
  Nuclear charge:   8.00000
  Number of symmetry independent centers:    1
  Number of basis sets to read;    2
  Basis set file used for this atomic type with Z =   8 :
     "/home/lab333/dalton/build_2018_atlas/basis/aug-cc-pCVDZ"

  Atomic type no.    4
  --------------------
  Nuclear charge:   1.00000
  Number of symmetry independent centers:    3
  Number of basis sets to read;    2
  Basis set file used for this atomic type with Z =   1 :
     "/home/lab333/dalton/build_2018_atlas/basis/aug-cc-pCVDZ"


                         SYMGRP: Point group information
                         -------------------------------

@    Point group: C2v

@  * The irrep name for each symmetry:    1: A1     2: B1     3: B2     4: A2 

   * The point group was generated by:

      Reflection in the yz-plane
      Reflection in the xz-plane

   * Group multiplication table

        |  E   C2z  Oxz  Oyz
   -----+--------------------
     E  |  E   C2z  Oxz  Oyz
    C2z | C2z   E   Oyz  Oxz
    Oxz | Oxz  Oyz   E   C2z
    Oyz | Oyz  Oxz  C2z   E 

   * Character table

        |  E   C2z  Oxz  Oyz
   -----+--------------------
    A1  |   1    1    1    1
    B1  |   1   -1    1   -1
    B2  |   1   -1   -1    1
    A2  |   1    1   -1   -1

   * Direct product table

        | A1   B1   B2   A2 
   -----+--------------------
    A1  | A1   B1   B2   A2 
    B1  | B1   A1   A2   B2 
    B2  | B2   A2   A1   B1 
    A2  | A2   B2   B1   A1 


                                 Isotopic Masses
                                 ---------------

                           C          12.000000
                           C   _1     12.000000
                           C   _2     12.000000
                           C   _1     12.000000
                           C   _2     12.000000
                           C          12.000000
                           N          14.003074
                           O   _1     15.994915
                           O   _2     15.994915
                           H   _1      1.007825
                           H   _2      1.007825
                           H   _1      1.007825
                           H   _2      1.007825
                           H           1.007825

                       Total mass:   123.032029 amu
                       Natural abundance:  92.716 %

 Center-of-mass coordinates (a.u.):    0.000000    0.000000   -0.125113


  Atoms and basis sets
  --------------------

  Number of atom types :    4
  Total number of atoms:   14

  Basis set used is "aug-cc-pCVDZ" from the basis set library.

  label    atoms   charge   prim   cont     basis
  ----------------------------------------------------------------------
  C           6    6.0000    39    27      [11s6p2d|5s4p2d]                                   
  N           1    7.0000    39    27      [11s6p2d|5s4p2d]                                   
  O           2    8.0000    39    27      [11s6p2d|5s4p2d]                                   
  H           5    1.0000    11     9      [5s2p|3s2p]                                        
  ----------------------------------------------------------------------
  total:     14   64.0000   406   288
  ----------------------------------------------------------------------
  Spherical harmonic basis used.

  Threshold for neglecting AO integrals:  1.00D-12


  Symmetry Coordinates
  --------------------

  Number of coordinates in each symmetry:    14   14    9    5


   Interatomic separations (in Angstrom):
   --------------------------------------

            C           C   _1      C   _2      C   _1      C   _2      C     
            ------      ------      ------      ------      ------      ------
 C     :    0.000000
 C   _1:    1.391719    0.000000
 C   _2:    1.391719    2.438107    0.000000
 C   _1:    2.392065    1.391780    2.799956    0.000000
 C   _2:    2.392065    2.799956    1.391780    2.421019    0.000000
 C     :    2.757573    2.416230    2.416230    1.395542    1.395542    0.000000
 N     :    1.481505    2.474093    2.474093    3.745665    3.745665    4.239078
 O   _1:    2.634505    3.697770    3.316949    4.962066    4.687160    5.362544
 O   _2:    2.634505    3.316949    3.697770    4.687160    4.962066    5.362544
 H   _1:    2.143694    1.081451    3.407316    2.166922    3.881063    3.407904
 H   _2:    2.143694    3.407316    1.081451    3.881063    2.166922    3.407904
 H   _1:    3.376890    2.145360    3.883675    1.083722    3.403140    2.154719
 H   _2:    3.376890    3.883675    2.145360    3.403140    1.083722    2.154719
 H     :    3.841819    3.396703    3.396703    2.151500    2.151500    1.084247

            N           O   _1      O   _2      H   _1      H   _2      H   _1
            ------      ------      ------      ------      ------      ------
 N     :    0.000000
 O   _1:    1.224763    0.000000
 O   _2:    1.224763    1.095666    0.000000
 H   _1:    2.665523    3.798601    3.120511    0.000000
 H   _2:    2.665523    3.120511    3.798601    4.282121    0.000000
 H   _1:    4.616894    5.841454    5.423357    2.498398    4.964773    0.000000
 H   _2:    4.616894    5.423357    5.841454    4.964773    2.498398    4.298566
 H     :    5.323325    6.442071    6.442071    4.305675    4.305675    2.479943

            H   _2      H     
            ------      ------
 H   _2:    0.000000
 H     :    2.479943    0.000000


  Max    interatomic separation is    6.4421 Angstrom (   12.1737 Bohr)
  between atoms   14 and    8, "H     " and "O   _1".

  Min HX interatomic separation is    1.0815 Angstrom (    2.0436 Bohr)

  Min YX interatomic separation is    1.0957 Angstrom (    2.0705 Bohr)


  Bond distances (Angstrom):
  --------------------------

                  atom 1     atom 2       distance
                  ------     ------       --------
  bond distance:  C   _1     C            1.391719
  bond distance:  C   _2     C            1.391719
  bond distance:  C   _1     C   _1       1.391780
  bond distance:  C   _2     C   _2       1.391780
  bond distance:  C          C   _1       1.395542
  bond distance:  C          C   _2       1.395542
  bond distance:  N          C            1.481505
  bond distance:  O   _1     N            1.224763
  bond distance:  O   _2     N            1.224763
  bond distance:  O   _2     O   _1       1.095666
  bond distance:  H   _1     C   _1       1.081451
  bond distance:  H   _2     C   _2       1.081451
  bond distance:  H   _1     C   _1       1.083722
  bond distance:  H   _2     C   _2       1.083722
  bond distance:  H          C            1.084247


  Bond angles (degrees):
  ----------------------

                  atom 1     atom 2     atom 3         angle
                  ------     ------     ------         -----
  bond angle:     C   _1     C          C   _2       122.311
  bond angle:     C   _1     C          N            118.844
  bond angle:     C   _2     C          N            118.844
  bond angle:     C          C   _1     C   _1       118.493
  bond angle:     C          C   _1     H   _1       119.647
  bond angle:     C   _1     C   _1     H   _1       121.860
  bond angle:     C          C   _2     C   _2       118.493
  bond angle:     C          C   _2     H   _2       119.647
  bond angle:     C   _2     C   _2     H   _2       121.860
  bond angle:     C   _1     C   _1     C            120.192
  bond angle:     C   _1     C   _1     H   _1       119.623
  bond angle:     C          C   _1     H   _1       120.185
  bond angle:     C   _2     C   _2     C            120.192
  bond angle:     C   _2     C   _2     H   _2       119.623
  bond angle:     C          C   _2     H   _2       120.185
  bond angle:     C   _1     C          C   _2       120.319
  bond angle:     C   _1     C          H            119.841
  bond angle:     C   _2     C          H            119.841
  bond angle:     C          N          O   _1       153.430
  bond angle:     C          N          O   _2       153.430
  bond angle:     O   _1     N          O   _2        53.141
  bond angle:     N          O   _1     O   _2        63.430
  bond angle:     N          O   _2     O   _1        63.430




 Principal moments of inertia (u*A**2) and principal axes
 --------------------------------------------------------

   IA      98.986167          0.000000    0.000000    1.000000
   IB     475.770585          1.000000    0.000000    0.000000
   IC     574.756752          0.000000    1.000000    0.000000


 Rotational constants
 --------------------

@    The molecule is planar.

               A                   B                   C

           5105.5519           1062.2326            879.2920 MHz
            0.170303            0.035432            0.029330 cm-1


@  Nuclear repulsion energy :  416.970422364670 Hartree


  Symmetry Orbitals
  -----------------

  Number of orbitals in each symmetry:         115   91   48   34


  Symmetry  A1 ( 1)

    1     C        1s         1
    2     C        1s         2
    3     C        1s         3
    4     C        1s         4
    5     C        1s         5
    6     C        2pz        8
    7     C        2pz       11
    8     C        2pz       14
    9     C        2pz       17
   10     C        3d0       20
   11     C        3d2+      22
   12     C        3d0       25
   13     C        3d2+      27
   14     C        1s        28 +   29
   15     C        1s        30 +   31
   16     C        1s        32 +   33
   17     C        1s        34 +   35
   18     C        1s        36 +   37
   19     C        2px       38 -   39
   20     C        2pz       42 +   43
   21     C        2px       44 -   45
   22     C        2pz       48 +   49
   23     C        2px       50 -   51
   24     C        2pz       54 +   55
   25     C        2px       56 -   57
   26     C        2pz       60 +   61
   27     C        3d0       66 +   67
   28     C        3d1+      68 -   69
   29     C        3d2+      70 +   71
   30     C        3d0       76 +   77
   31     C        3d1+      78 -   79
   32     C        3d2+      80 +   81
   33     C        1s        82 +   83
   34     C        1s        84 +   85
   35     C        1s        86 +   87
   36     C        1s        88 +   89
   37     C        1s        90 +   91
   38     C        2px       92 -   93
   39     C        2pz       96 +   97
   40     C        2px       98 -   99
   41     C        2pz      102 +  103
   42     C        2px      104 -  105
   43     C        2pz      108 +  109
   44     C        2px      110 -  111
   45     C        2pz      114 +  115
   46     C        3d0      120 +  121
   47     C        3d1+     122 -  123
   48     C        3d2+     124 +  125
   49     C        3d0      130 +  131
   50     C        3d1+     132 -  133
   51     C        3d2+     134 +  135
   52     C        1s       136
   53     C        1s       137
   54     C        1s       138
   55     C        1s       139
   56     C        1s       140
   57     C        2pz      143
   58     C        2pz      146
   59     C        2pz      149
   60     C        2pz      152
   61     C        3d0      155
   62     C        3d2+     157
   63     C        3d0      160
   64     C        3d2+     162
   65     N        1s       163
   66     N        1s       164
   67     N        1s       165
   68     N        1s       166
   69     N        1s       167
   70     N        2pz      170
   71     N        2pz      173
   72     N        2pz      176
   73     N        2pz      179
   74     N        3d0      182
   75     N        3d2+     184
   76     N        3d0      187
   77     N        3d2+     189
   78     O        1s       190 +  191
   79     O        1s       192 +  193
   80     O        1s       194 +  195
   81     O        1s       196 +  197
   82     O        1s       198 +  199
   83     O        2px      200 -  201
   84     O        2pz      204 +  205
   85     O        2px      206 -  207
   86     O        2pz      210 +  211
   87     O        2px      212 -  213
   88     O        2pz      216 +  217
   89     O        2px      218 -  219
   90     O        2pz      222 +  223
   91     O        3d0      228 +  229
   92     O        3d1+     230 -  231
   93     O        3d2+     232 +  233
   94     O        3d0      238 +  239
   95     O        3d1+     240 -  241
   96     O        3d2+     242 +  243
   97     H        1s       244 +  245
   98     H        1s       246 +  247
   99     H        1s       248 +  249
  100     H        2px      250 -  251
  101     H        2pz      254 +  255
  102     H        2px      256 -  257
  103     H        2pz      260 +  261
  104     H        1s       262 +  263
  105     H        1s       264 +  265
  106     H        1s       266 +  267
  107     H        2px      268 -  269
  108     H        2pz      272 +  273
  109     H        2px      274 -  275
  110     H        2pz      278 +  279
  111     H        1s       280
  112     H        1s       281
  113     H        1s       282
  114     H        2pz      285
  115     H        2pz      288


  Symmetry  B1 ( 2)

  116     C        2px        6
  117     C        2px        9
  118     C        2px       12
  119     C        2px       15
  120     C        3d1+      21
  121     C        3d1+      26
  122     C        1s        28 -   29
  123     C        1s        30 -   31
  124     C        1s        32 -   33
  125     C        1s        34 -   35
  126     C        1s        36 -   37
  127     C        2px       38 +   39
  128     C        2pz       42 -   43
  129     C        2px       44 +   45
  130     C        2pz       48 -   49
  131     C        2px       50 +   51
  132     C        2pz       54 -   55
  133     C        2px       56 +   57
  134     C        2pz       60 -   61
  135     C        3d0       66 -   67
  136     C        3d1+      68 +   69
  137     C        3d2+      70 -   71
  138     C        3d0       76 -   77
  139     C        3d1+      78 +   79
  140     C        3d2+      80 -   81
  141     C        1s        82 -   83
  142     C        1s        84 -   85
  143     C        1s        86 -   87
  144     C        1s        88 -   89
  145     C        1s        90 -   91
  146     C        2px       92 +   93
  147     C        2pz       96 -   97
  148     C        2px       98 +   99
  149     C        2pz      102 -  103
  150     C        2px      104 +  105
  151     C        2pz      108 -  109
  152     C        2px      110 +  111
  153     C        2pz      114 -  115
  154     C        3d0      120 -  121
  155     C        3d1+     122 +  123
  156     C        3d2+     124 -  125
  157     C        3d0      130 -  131
  158     C        3d1+     132 +  133
  159     C        3d2+     134 -  135
  160     C        2px      141
  161     C        2px      144
  162     C        2px      147
  163     C        2px      150
  164     C        3d1+     156
  165     C        3d1+     161
  166     N        2px      168
  167     N        2px      171
  168     N        2px      174
  169     N        2px      177
  170     N        3d1+     183
  171     N        3d1+     188
  172     O        1s       190 -  191
  173     O        1s       192 -  193
  174     O        1s       194 -  195
  175     O        1s       196 -  197
  176     O        1s       198 -  199
  177     O        2px      200 +  201
  178     O        2pz      204 -  205
  179     O        2px      206 +  207
  180     O        2pz      210 -  211
  181     O        2px      212 +  213
  182     O        2pz      216 -  217
  183     O        2px      218 +  219
  184     O        2pz      222 -  223
  185     O        3d0      228 -  229
  186     O        3d1+     230 +  231
  187     O        3d2+     232 -  233
  188     O        3d0      238 -  239
  189     O        3d1+     240 +  241
  190     O        3d2+     242 -  243
  191     H        1s       244 -  245
  192     H        1s       246 -  247
  193     H        1s       248 -  249
  194     H        2px      250 +  251
  195     H        2pz      254 -  255
  196     H        2px      256 +  257
  197     H        2pz      260 -  261
  198     H        1s       262 -  263
  199     H        1s       264 -  265
  200     H        1s       266 -  267
  201     H        2px      268 +  269
  202     H        2pz      272 -  273
  203     H        2px      274 +  275
  204     H        2pz      278 -  279
  205     H        2px      283
  206     H        2px      286


  Symmetry  B2 ( 3)

  207     C        2py        7
  208     C        2py       10
  209     C        2py       13
  210     C        2py       16
  211     C        3d1-      19
  212     C        3d1-      24
  213     C        2py       40 +   41
  214     C        2py       46 +   47
  215     C        2py       52 +   53
  216     C        2py       58 +   59
  217     C        3d2-      62 -   63
  218     C        3d1-      64 +   65
  219     C        3d2-      72 -   73
  220     C        3d1-      74 +   75
  221     C        2py       94 +   95
  222     C        2py      100 +  101
  223     C        2py      106 +  107
  224     C        2py      112 +  113
  225     C        3d2-     116 -  117
  226     C        3d1-     118 +  119
  227     C        3d2-     126 -  127
  228     C        3d1-     128 +  129
  229     C        2py      142
  230     C        2py      145
  231     C        2py      148
  232     C        2py      151
  233     C        3d1-     154
  234     C        3d1-     159
  235     N        2py      169
  236     N        2py      172
  237     N        2py      175
  238     N        2py      178
  239     N        3d1-     181
  240     N        3d1-     186
  241     O        2py      202 +  203
  242     O        2py      208 +  209
  243     O        2py      214 +  215
  244     O        2py      220 +  221
  245     O        3d2-     224 -  225
  246     O        3d1-     226 +  227
  247     O        3d2-     234 -  235
  248     O        3d1-     236 +  237
  249     H        2py      252 +  253
  250     H        2py      258 +  259
  251     H        2py      270 +  271
  252     H        2py      276 +  277
  253     H        2py      284
  254     H        2py      287


  Symmetry  A2 ( 4)

  255     C        3d2-      18
  256     C        3d2-      23
  257     C        2py       40 -   41
  258     C        2py       46 -   47
  259     C        2py       52 -   53
  260     C        2py       58 -   59
  261     C        3d2-      62 +   63
  262     C        3d1-      64 -   65
  263     C        3d2-      72 +   73
  264     C        3d1-      74 -   75
  265     C        2py       94 -   95
  266     C        2py      100 -  101
  267     C        2py      106 -  107
  268     C        2py      112 -  113
  269     C        3d2-     116 +  117
  270     C        3d1-     118 -  119
  271     C        3d2-     126 +  127
  272     C        3d1-     128 -  129
  273     C        3d2-     153
  274     C        3d2-     158
  275     N        3d2-     180
  276     N        3d2-     185
  277     O        2py      202 -  203
  278     O        2py      208 -  209
  279     O        2py      214 -  215
  280     O        2py      220 -  221
  281     O        3d2-     224 +  225
  282     O        3d1-     226 -  227
  283     O        3d2-     234 +  235
  284     O        3d1-     236 -  237
  285     H        2py      252 -  253
  286     H        2py      258 -  259
  287     H        2py      270 -  271
  288     H        2py      276 -  277

  Symmetries of electric field:  B1 (2)  B2 (3)  A1 (1)

  Symmetries of magnetic field:  B2 (3)  B1 (2)  A2 (4)


                     .---------------------------------------.
                     | Starting in Integral Section (HERMIT) |
                     `---------------------------------------'



 ***************************************************************************************
 ****************** Output from **INTEGRALS input processing (HERMIT) ******************
 ***************************************************************************************


 - Using defaults, no **INTEGRALS input found

 Default print level:        1

 Calculation of one-electron Hamiltonian integrals.

 Center of mass  (bohr):      0.000000000000      0.000000000000     -0.125112859151
 Operator center (bohr):      0.000000000000      0.000000000000      0.000000000000
 Gauge origin    (bohr):      0.000000000000      0.000000000000      0.000000000000
 Dipole origin   (bohr):      0.000000000000      0.000000000000      0.000000000000


     ************************************************************************
     ************************** Output from HERINT **************************
     ************************************************************************



                      Nuclear contribution to dipole moments
                      --------------------------------------

                 au               Debye          C m (/(10**-30)

      z    -16.48495546       -41.90057468      -139.76527281


  Total CPU  time used in HERMIT:   0.38 seconds
  Total wall time used in HERMIT:   0.38 seconds


                        .----------------------------------.
                        | End of Integral Section (HERMIT) |
                        `----------------------------------'



                   .--------------------------------------------.
                   | Starting in Wave Function Section (SIRIUS) |
                   `--------------------------------------------'


 *** Output from Huckel module :

     Using EWMO model:          F
     Using EHT  model:          T
     Number of Huckel orbitals each symmetry:   24   17    6    3

 Huckel EHT eigenvalues for symmetry :  1
          -20.731592     -15.706221     -11.414841     -11.394401     -11.376675
          -11.362577      -1.970053      -1.578329      -1.274926      -1.016643
           -0.834908      -0.740977      -0.636090      -0.608775      -0.543091
           -0.439218      -0.312812      -0.237662      -0.219941      -0.213409
           -0.205731      -0.178506      -0.166806      -0.160388

 Huckel EHT eigenvalues for symmetry :  2
          -20.706237     -11.396450     -11.377841      -1.237316      -1.133718
           -0.881610      -0.578711      -0.533721      -0.481922      -0.416696
           -0.340187      -0.329974      -0.213866      -0.202818      -0.176270
           -0.165473      -0.163320

 Huckel EHT eigenvalues for symmetry :  3
           -0.850973      -0.700337      -0.487897      -0.393480      -0.281601
           -0.236530

 Huckel EHT eigenvalues for symmetry :  4
           -0.482277      -0.460446      -0.288958

 **********************************************************************
 *SIRIUS* a direct, restricted step, second order MCSCF program       *
 **********************************************************************

 
     Date and time (Linux)  : Mon Jan 20 21:11:03 2020
     Host name              : Lab2-333-NPs                            

 Title lines from ".mol" input file:
      nitrobenzene                                                           
      Generated by the Dalton Input File Plugin for Avogadro                 

 Print level on unit LUPRI =   2 is   0
 Print level on unit LUW4  =   2 is   5

@    MC-SCF optimization.

@    Multi-configurational response calculation.
@              Type: complete active space calculation (CAS).

@    This is a combination run starting with
@              a restricted, closed shell Hartree-Fock calculation
@              an MP2 calculation

 Fock matrices are calculated directly without use of integrals on disk.

 Initial molecular orbitals are obtained according to
 ".MOSTART EHT   " input option

     Wave function specification
     ============================
@    Wave function type        --- MC-SCF ---
@    Number of closed shell electrons          54
@    Number of electrons in active shells      10
@    Total charge of the molecule               0

@    Spin multiplicity and 2 M_S                3         2
@    Total number of symmetries                 4 (point group: C2v)
@    Reference state symmetry                   1 (irrep name : A1 )

     Orbital specifications
     ======================
@    Abelian symmetry species          All |    1    2    3    4
@                                          |  A1   B1   B2   A2 
                                       --- |  ---  ---  ---  ---
@    Inactive orbitals                  27 |   15   10    2    0
@    Active orbitals                     7 |    1    1    2    3
@    Secondary orbitals                254 |   99   80   44   31
@    Total number of orbitals          288 |  115   91   48   34
@    Number of basis functions         288 |  115   91   48   34

      ** Automatic occupation of RHF orbitals **

      -- Initial occupation of symmetries is determined from extended Huckel guess.           
      -- Initial occupation of symmetries is :
@    Occupied SCF orbitals              32 |   16   10    4    2

     Optimization information
     ========================
@    Number of determinants                  56
@    Number of orbital rotations           2762
     ------------------------------------------
@    Total number of variables             2818

     Maximum number of macro iterations      40
     Maximum number of micro iterations     960
     Threshold for MCSCF gradient      1.00D-05
     Number of initial trial vectors          2
     Number of initial CI iterations          3
     Number of simultaneous trial vectors     2

@    This calculation converges to state no.   2 for the specified symmetry and spin species.

     Maximum number of NEO/NR iterations  24

    INFORMATION: Switched to "new" integral transformation (from 1988 ;-) )
    because more than 255 basis functions.


 ***********************************************
 ***** DIIS acceleration of SCF iterations *****
 ***********************************************

 C1-DIIS algorithm; max error vectors =    8

 Automatic occupation of symmetries with  64 electrons.

 Iter     Total energy    Error norm  Delta(E)    SCF occupation
 -----------------------------------------------------------------------------
   1  Screening settings (-IFTHRS, JTDIIS, DIFDEN, times)   -8    1    T  2.59D+01  2.59D+01
@  1  -432.125423193       6.30D+00  -4.32D+02    16  10   4   2
      Virial theorem: -V/T =      1.998439
@    MULPOP   C       0.48; C   _1  0.10; C   _2  0.10; C   _1  0.26; C   _2  0.26; C       0.19; N       0.05; O   _1 -0.26; O   _2 -0.26; H   _1 -0.19; 
@             H   _2 -0.19; H   _1 -0.18; H   _2 -0.18; H      -0.18; 
   1  Level shift: doubly occupied orbital energies shifted by -2.00D-01
 -----------------------------------------------------------------------------
   2  Screening settings (-IFTHRS, JTDIIS, DIFDEN, times)   -8    2    T  2.60D+01  2.60D+01
@  2  -433.736438885       1.42D+00  -1.61D+00    16  10   4   2
      Virial theorem: -V/T =      1.992982
@    MULPOP   C       1.63; C   _1  0.04; C   _2  0.04; C   _1  0.41; C   _2  0.41; C       0.39; N       0.32; O   _1 -0.54; O   _2 -0.54; H   _1 -0.46; 
@             H   _2 -0.46; H   _1 -0.41; H   _2 -0.41; H      -0.42; 
   2  Level shift: doubly occupied orbital energies shifted by -5.00D-02
 -----------------------------------------------------------------------------
   3  Screening settings (-IFTHRS, JTDIIS, DIFDEN, times)   -8    3    T  2.59D+01  2.59D+01
@  3  -433.849841937       4.20D-01  -1.13D-01    16  10   4   2
      Virial theorem: -V/T =      1.998385
@    MULPOP   C       2.07; C   _1 -0.05; C   _2 -0.05; C   _1  0.56; C   _2  0.56; C       0.32; N       0.21; O   _1 -0.62; O   _2 -0.62; H   _1 -0.51; 
@             H   _2 -0.51; H   _1 -0.46; H   _2 -0.46; H      -0.47; 
   3  Level shift: doubly occupied orbital energies shifted by -2.50D-02
 -----------------------------------------------------------------------------
   4  Screening settings (-IFTHRS, JTDIIS, DIFDEN, times)   -8    4    T  2.57D+01  2.57D+01
@  4  -433.862060487       1.43D-01  -1.22D-02    16  10   4   2
      Virial theorem: -V/T =      1.997425
@    MULPOP   C       2.08; C   _1 -0.08; C   _2 -0.08; C   _1  0.58; C   _2  0.58; C       0.32; N       0.15; O   _1 -0.60; O   _2 -0.60; H   _1 -0.50; 
@             H   _2 -0.50; H   _1 -0.45; H   _2 -0.45; H      -0.46; 
   4  Level shift: doubly occupied orbital energies shifted by -1.25D-02
 -----------------------------------------------------------------------------
   5  Screening settings (-IFTHRS, JTDIIS, DIFDEN, times)  -10    5    F  2.62D+01  2.62D+01
@  5  -433.863341359       5.09D-02  -1.28D-03    16  10   4   2
      Virial theorem: -V/T =      1.997167
@    MULPOP   C       2.11; C   _1 -0.09; C   _2 -0.09; C   _1  0.58; C   _2  0.58; C       0.31; N       0.15; O   _1 -0.61; O   _2 -0.61; H   _1 -0.49; 
@             H   _2 -0.49; H   _1 -0.44; H   _2 -0.44; H      -0.46; 
 -----------------------------------------------------------------------------
   6  Screening settings (-IFTHRS, JTDIIS, DIFDEN, times)  -10    6    T  2.60D+01  2.60D+01
@  6  -433.863519553       9.85D-03  -1.78D-04    16  10   4   2
      Virial theorem: -V/T =      1.997291
@    MULPOP   C       2.11; C   _1 -0.09; C   _2 -0.09; C   _1  0.58; C   _2  0.58; C       0.31; N       0.14; O   _1 -0.61; O   _2 -0.61; H   _1 -0.49; 
@             H   _2 -0.49; H   _1 -0.44; H   _2 -0.44; H      -0.46; 
 -----------------------------------------------------------------------------
   7  Screening settings (-IFTHRS, JTDIIS, DIFDEN, times)  -13    7    F  2.64D+01  2.64D+01
@  7  -433.863529914       2.59D-03  -1.04D-05    16  10   4   2
      Virial theorem: -V/T =      1.997280
@    MULPOP   C       2.11; C   _1 -0.09; C   _2 -0.09; C   _1  0.58; C   _2  0.58; C       0.31; N       0.14; O   _1 -0.60; O   _2 -0.60; H   _1 -0.49; 
@             H   _2 -0.49; H   _1 -0.44; H   _2 -0.44; H      -0.45; 
 -----------------------------------------------------------------------------
   8  Screening settings (-IFTHRS, JTDIIS, DIFDEN, times)  -13    8    T  2.62D+01  2.62D+01
@  8  -433.863530917       1.23D-03  -1.00D-06    16  10   4   2
      Virial theorem: -V/T =      1.997275
@    MULPOP   C       2.11; C   _1 -0.09; C   _2 -0.09; C   _1  0.58; C   _2  0.58; C       0.31; N       0.14; O   _1 -0.60; O   _2 -0.60; H   _1 -0.49; 
@             H   _2 -0.49; H   _1 -0.44; H   _2 -0.44; H      -0.45; 
 -----------------------------------------------------------------------------
   9  Screening settings (-IFTHRS, JTDIIS, DIFDEN, times)  -13    9    T  2.62D+01  2.62D+01
@  9  -433.863531188       4.78D-04  -2.71D-07    16  10   4   2
      Virial theorem: -V/T =      1.997277
@    MULPOP   C       2.11; C   _1 -0.09; C   _2 -0.09; C   _1  0.58; C   _2  0.58; C       0.31; N       0.14; O   _1 -0.60; O   _2 -0.60; H   _1 -0.49; 
@             H   _2 -0.49; H   _1 -0.44; H   _2 -0.44; H      -0.45; 
 -----------------------------------------------------------------------------
  10  Screening settings (-IFTHRS, JTDIIS, DIFDEN, times)  -13   10    T  2.62D+01  2.62D+01
@ 10  -433.863531276       1.91D-04  -8.83D-08    16  10   4   2
      Virial theorem: -V/T =      1.997277
@    MULPOP   C       2.11; C   _1 -0.09; C   _2 -0.09; C   _1  0.58; C   _2  0.58; C       0.31; N       0.14; O   _1 -0.60; O   _2 -0.60; H   _1 -0.49; 
@             H   _2 -0.49; H   _1 -0.44; H   _2 -0.44; H      -0.45; 
 -----------------------------------------------------------------------------
  11  Screening settings (-IFTHRS, JTDIIS, DIFDEN, times)  -13   11    T  2.61D+01  2.61D+01
@ 11  -433.863531291       8.16D-05  -1.41D-08    16  10   4   2
      Virial theorem: -V/T =      1.997277
@    MULPOP   C       2.11; C   _1 -0.09; C   _2 -0.09; C   _1  0.58; C   _2  0.58; C       0.31; N       0.14; O   _1 -0.60; O   _2 -0.60; H   _1 -0.49; 
@             H   _2 -0.49; H   _1 -0.44; H   _2 -0.44; H      -0.45; 
 -----------------------------------------------------------------------------
  12  Screening settings (-IFTHRS, JTDIIS, DIFDEN, times)  -13   12    T  2.61D+01  2.61D+01
@ 12  -433.863531292       2.91D-05  -1.50D-09    16  10   4   2
      Virial theorem: -V/T =      1.997277
@    MULPOP   C       2.11; C   _1 -0.09; C   _2 -0.09; C   _1  0.58; C   _2  0.58; C       0.31; N       0.14; O   _1 -0.60; O   _2 -0.60; H   _1 -0.49; 
@             H   _2 -0.49; H   _1 -0.44; H   _2 -0.44; H      -0.45; 
 -----------------------------------------------------------------------------
  13  Screening settings (-IFTHRS, JTDIIS, DIFDEN, times)  -13   13    T  2.60D+01  2.60D+01
@ 13  -433.863531292       6.53D-06  -1.81D-10    16  10   4   2
      Virial theorem: -V/T =      1.997277
@    MULPOP   C       2.11; C   _1 -0.09; C   _2 -0.09; C   _1  0.58; C   _2  0.58; C       0.31; N       0.14; O   _1 -0.60; O   _2 -0.60; H   _1 -0.49; 
@             H   _2 -0.49; H   _1 -0.44; H   _2 -0.44; H      -0.45; 
 -----------------------------------------------------------------------------
  14  Screening settings (-IFTHRS, JTDIIS, DIFDEN, times)  -13   14    T  2.59D+01  2.59D+01
@ 14  -433.863531292       2.96D-06  -1.14D-13    16  10   4   2
      Virial theorem: -V/T =      1.997277
@    MULPOP   C       2.11; C   _1 -0.09; C   _2 -0.09; C   _1  0.58; C   _2  0.58; C       0.31; N       0.14; O   _1 -0.60; O   _2 -0.60; H   _1 -0.49; 
@             H   _2 -0.49; H   _1 -0.44; H   _2 -0.44; H      -0.45; 
 -----------------------------------------------------------------------------
  15  Screening settings (-IFTHRS, JTDIIS, DIFDEN, times)  -13   15    T  2.58D+01  2.58D+01
@ 15  -433.863531292       8.46D-07  -9.32D-12    16  10   4   2

@ *** DIIS converged in  15 iterations !
@     Converged SCF energy, gradient:   -433.863531292279    8.46D-07
    - total time used in SIRFCK :              0.00 seconds

 --- Writing SIRIFC interface file

 CPU and wall time for SCF :     391.234     391.229


 ----- Output from SIRIUS MP2 module -----

 Reference: H.J.Aa.Jensen, P.Jorgensen, H.Agren, and J.Olsen,
            J. Chem. Phys. 88, 3834 (1988); 89, 5354 (1988)

 Checking that the closed shell orbitals are canonical Hartree-Fock orbitals

    Number of electrons  :   64
    Closed shell orbitals:   16   10    4    2

 Generating Fock matrix

 Hartree-Fock electronic energy:        -850.833953656936
 Hartree-Fock total      energy:        -433.863531292266

 Hartree-Fock orbital energies, symmetry 1 ( A1 ),   16 occupied SCF orbitals

       -20.68362458   -15.66695341   -11.35213113   -11.26458412   -11.25840802
       -11.24689447    -1.97416241    -1.21102935    -1.14368535    -1.03134666
        -0.88200145    -0.79259635    -0.74139072    -0.69047304    -0.63020538
        -0.53258261     0.03305830     0.04554995     0.06348911     0.10828827
         0.12408899     0.14125058     0.15462067     0.15736594     0.17001303
         0.18309206     0.20475537     0.25238610     0.26746362     0.28921980
         0.32038877     0.33410239     0.34399126     0.35936712     0.36424371
         0.39190765     0.40977922     0.42387228     0.45727884     0.47582755
         0.51140159     0.57035315     0.57558573     0.61350254     0.62661391
         0.66780473     0.67569625     0.68705804     0.72004661     0.76069395
         0.78961599     0.84292278     0.90219448     0.90344844     0.95894254
         0.99059909     1.01876530     1.06697661     1.08045139     1.09146444
         1.20265316     1.29100584     1.33903144     1.41546845     1.49949408
         1.53973348     1.55276512     1.59369727     1.60614046     1.63309923
         1.70455764     1.73471690     1.76807564     1.79274883     1.87163487
         1.95972531     1.99232701     2.03397277     2.03859083     2.20945597
         2.23743654     2.30420071     2.38073574     2.41143265     2.43919242
         2.51969709     2.57301855     2.69366078     2.75170699     2.83965815
         2.91370354     2.97139949     3.05448869     3.16573139     3.20156871
         3.32903643     3.59089202     3.82027169     3.97465843     4.17637003
        19.81961227    20.32632318    20.47092970    20.64010516    23.37023512
        23.43798798    23.48540867    23.80918009    23.91020882    24.12929591
        27.36704671    31.74673019    35.79878402    39.67069409    40.06563351

 Hartree-Fock orbital energies, symmetry 2 ( B1 ),   10 occupied SCF orbitals

       -20.68238437   -11.26455987   -11.25842177    -1.16038023    -1.03973579
        -0.85394902    -0.65721271    -0.61073997    -0.58288781    -0.51776939
         0.03885828     0.05733569     0.13324488     0.13736368     0.15216253
         0.16117819     0.18095257     0.20724875     0.25847077     0.29496115
         0.30390967     0.31718330     0.34560132     0.36184811     0.37652249
         0.39679847     0.41436356     0.43321552     0.50903038     0.55776189
         0.58153076     0.62387191     0.65470935     0.67526260     0.69430193
         0.72460159     0.76824366     0.78457324     0.83383850     0.85470972
         0.88738888     0.90337463     1.03401331     1.16905657     1.24582869
         1.31435296     1.36028206     1.39694174     1.44604384     1.50566880
         1.51703398     1.60291248     1.61194207     1.65670489     1.72151621
         1.76799537     1.78690697     1.82575117     1.87119142     1.93563040
         2.05575544     2.13808593     2.17517082     2.31877367     2.33362935
         2.38793056     2.45473715     2.53886032     2.64528989     2.73230564
         2.90990782     2.94551566     3.16616021     3.33491555     3.36568905
         3.43094839     3.98399865     4.38533335     4.69961837    20.29671122
        20.47991850    22.87823610    23.33116520    23.39517619    23.96230858
        24.13279928    24.31954808    31.32563969    35.85764879    39.98235760
        40.72982130

 Hartree-Fock orbital energies, symmetry 3 ( B2 ),    4 occupied SCF orbitals

        -0.90376381    -0.54330642    -0.43288780    -0.30335256     0.10415365
         0.11987062     0.13893407     0.18519379     0.19028505     0.23274715
         0.29925294     0.34005149     0.39119655     0.46811352     0.54704306
         0.59958964     0.67251448     0.71765541     0.79531698     0.87751370
         0.91290120     0.93157674     0.95608102     1.05143728     1.09454123
         1.14547500     1.17917180     1.48010320     1.52626108     1.62951196
         1.68189395     1.71728774     1.85250138     1.94302725     2.09747935
         2.11506537     2.18054541     2.31086688     2.56957572     2.69445615
         3.12307170     3.78580686    22.56528058    22.71402250    22.84304340
        23.04136428    30.75749851    39.44914158

 Hartree-Fock orbital energies, symmetry 4 ( A2 ),    2 occupied SCF orbitals

        -0.41997661    -0.35881585     0.09399257     0.13711859     0.19103503
         0.28323871     0.41872261     0.49499877     0.55132155     0.65913952
         0.74502272     0.88929539     0.90973042     0.94781681     1.04085089
         1.08136472     1.23023341     1.29882027     1.44597300     1.60613383
         1.69178989     1.70254777     1.87012704     1.88770074     2.11494779
         2.18988991     2.36122943     2.54119686     2.62998981     3.84039199
         4.21891645    22.70900266    22.87803539    39.41867600

    E(LUMO) :     0.03305830   (in symmetry 1)
  - E(HOMO) :    -0.30335256   (in symmetry 3)
  --------------------------
    gap     :     0.33641086

---> (Re)generating AOTWOINT


     ************************************************************************
     ************************** Output from HERINT **************************
     ************************************************************************


 Threshold for neglecting two-electron integrals:  1.00D-12
 HERMIT - Number of two-electron integrals written:   198583924 ( 22.9% )
 HERMIT - Megabytes written:                           3031.420

  Time used in TWOINT     is      36.23 seconds

 2-el. integral transformation level 5: Total CPU and WALL times (sec)     385.203     387.910

 MP2 move   0.902427 electrons to unoccupied HF orbitals


@   Hartree-Fock total energy   :          -433.8635312923
@   + MP2 contribution          :            -1.6637412669
@   = MP2 second order energy   :          -435.5272725591

 Natural orbital occupation numbers, symmetry 1 (irrep A1 )
 Sum =    31.98576343; RHF =    32.00000000; Difference =    -0.01423657

         1.99928460     1.99905988     1.99876110     1.99875765     1.99875204
         1.99874848     1.98943289     1.98421013     1.97978822     1.97435492
         1.96974429     1.96631224     1.96480503     1.96214867     1.95553227
         1.94849121     0.03778762     0.02573755     0.02425312     0.02236061
         0.01899140     0.01732768     0.01654243     0.01358589     0.01335407
         0.01229869     0.00998189     0.00891456     0.00832969     0.00770171
         0.00675966     0.00643542     0.00469208     0.00434070     0.00337888
         0.00298960     0.00287910     0.00259118     0.00236684     0.00205002
         0.00171130     0.00168976     0.00147901     0.00129337     0.00127720
         0.00118364     0.00106774     0.00095858     0.00073600     0.00065657
         0.00061788     0.00051079     0.00048713     0.00044594     0.00042513
         0.00041451     0.00039868     0.00037419     0.00035509     0.00034710
         0.00033039     0.00032529     0.00031518     0.00030636     0.00028110
         0.00026261     0.00023302     0.00022429     0.00022024     0.00019789
         0.00019358     0.00018351     0.00017699     0.00017313     0.00016760
         0.00016033     0.00015423     0.00014373     0.00013793     0.00013601
         0.00013271     0.00012407     0.00011752     0.00010483     0.00010118
         0.00009281     0.00007833     0.00006553     0.00005878     0.00005185
         0.00004521     0.00003611     0.00003347     0.00002543     0.00001717
         0.00001514     0.00001370     0.00001254     0.00001074     0.00000965
         0.00000881     0.00000746     0.00000668     0.00000371     0.00000231
         0.00000122     0.00000087     0.00000076     0.00000050     0.00000029
         0.00000016     0.00000008    -0.00000008    -0.00000072    -0.00000246

 Natural orbital occupation numbers, symmetry 2 (irrep B1 )
 Sum =    20.00035415; RHF =    20.00000000; Difference =     0.00035415

         1.99927899     1.99875753     1.99874976     1.98169076     1.97999913
         1.97256859     1.96084944     1.95557152     1.95426861     1.94652565
         0.04465176     0.02620439     0.02492681     0.02308968     0.01701689
         0.01640695     0.01574031     0.01189552     0.00962017     0.00911037
         0.00812306     0.00560696     0.00533064     0.00351167     0.00321801
         0.00306357     0.00250848     0.00217085     0.00207442     0.00164477
         0.00161870     0.00142076     0.00133895     0.00130473     0.00104510
         0.00099162     0.00068101     0.00064310     0.00054346     0.00045702
         0.00042511     0.00040347     0.00036911     0.00033884     0.00032937
         0.00029846     0.00028988     0.00027272     0.00025136     0.00021939
         0.00020884     0.00019903     0.00018838     0.00018300     0.00018142
         0.00017183     0.00016736     0.00016228     0.00015124     0.00014247
         0.00013574     0.00013414     0.00012397     0.00011997     0.00010453
         0.00010148     0.00009268     0.00007938     0.00005207     0.00004579
         0.00003210     0.00003087     0.00002368     0.00002322     0.00001650
         0.00001370     0.00001200     0.00001158     0.00000927     0.00000882
         0.00000444     0.00000297     0.00000134     0.00000116     0.00000062
         0.00000036     0.00000027     0.00000012    -0.00000005    -0.00000068
        -0.00000117

 Natural orbital occupation numbers, symmetry 3 (irrep B2 )
 Sum =     7.99247016; RHF =     8.00000000; Difference =    -0.00752984

         1.97832676     1.95912038     1.94529177     1.90749021     0.07102877
         0.03178836     0.01492630     0.01461920     0.01084342     0.01015108
         0.00895738     0.00719392     0.00711269     0.00533752     0.00403674
         0.00333931     0.00232224     0.00162345     0.00146966     0.00091636
         0.00089536     0.00070566     0.00055392     0.00048682     0.00047984
         0.00044397     0.00039218     0.00034736     0.00030392     0.00024586
         0.00021401     0.00020173     0.00019217     0.00018247     0.00017263
         0.00013764     0.00012677     0.00011739     0.00009882     0.00009296
         0.00007622     0.00005542     0.00002521     0.00002215     0.00001162
         0.00000723     0.00000173    -0.00001644

 Natural orbital occupation numbers, symmetry 4 (irrep A2 )
 Sum =     4.02141226; RHF =     4.00000000; Difference =     0.02141226

         1.96878391     1.91282834     0.06954400     0.01650173     0.01101445
         0.00969484     0.00726950     0.00578499     0.00436951     0.00374123
         0.00272438     0.00175117     0.00146391     0.00096434     0.00079502
         0.00074343     0.00062921     0.00053559     0.00041523     0.00037875
         0.00031512     0.00023980     0.00019754     0.00018775     0.00015209
         0.00013374     0.00012458     0.00009944     0.00007476     0.00005047
         0.00002204     0.00001907     0.00000889    -0.00014656

 Time used for MP2 natural orbitals :     414.859 CPU seconds,     417.564 wall seconds.

 CPU and wall time for MP2 :     414.859     417.564


        SIRIUS MCSCF optimization (SIROPT)
 ================================================


 Fock matrix screening setting for SIRCNO: IFTHRS =    9


 ----- Output from SIRIUS CI module (CICTL) -----




 2-el. integral transformation level 0: Total CPU and WALL times (sec)      92.844      92.857


 --- SIRCI.CIST1: plus combination of all degenerate
                 configurations is used as start vectors.


 (CIST1) 18 lowest diagonal elements:

 Element no. Config.no.    Active energy      Total energy

         1 :         47    -15.1315658981   -433.6376381895
         2 :         48    -14.8462149483   -433.3522872397
         3 :         56    -14.6960773761   -433.2021496675
         4 :         51    -14.5362839590   -433.0423562504
         5 :         49    -14.3690412020   -432.8751134934
         6 :         31    -14.3676321220   -432.8737044134
         7 :          9    -14.3655088514   -432.8715811428
         8 :         39    -14.3644061942   -432.8704784856
         9 :         19    -14.2679663732   -432.7740386646
        10 :         34    -14.2266456033   -432.7327178947
        11 :         10    -14.2241266106   -432.7301989020
        12 :         50    -14.2212660098   -432.7273383012
        13 :         40    -14.2167556196   -432.7228279110
        14 :         21    -14.1519143885   -432.6579866799
        15 :          5    -14.0793337342   -432.5854060256
        16 :         32    -14.0758658778   -432.5819381692
        17 :         15    -14.0744909221   -432.5805632135
        18 :         24    -14.0688510836   -432.5749233750


 Convergence threshold for CI optimization :     0.00000500



 *** Reached maximum number of CI iterations:    3
              1 CI roots are not converged.


@ Final CI energies and residuals in symmetry 1 (irrep A1 )
@    1     -433.640245962255676       5.84D-02
@    2     -433.356778033672981       1.10D-04
@    3     -433.199888089454475       6.02D-02
@    4     -433.041927594952142       3.71D-02
@    5     -432.875402606568230       6.77D-02
@    6     -432.873474570120607       8.66D-02

   --- OUTPUT FROM SIRCNO     Keyword = FD+NO 


 Occupations of CAS natural orbitals:

 Symmetry  1 ( irrep A1  in C2v )

   1.995940943

 Symmetry  2 ( irrep B1  in C2v )

   0.004074766

 Symmetry  3 ( irrep B2  in C2v )

   1.999976421   1.999711106

 Symmetry  4 ( irrep A2  in C2v )

   1.000022267   1.999999266   1.000275231


 --- MACRO ITERATION  1 ---
 --------------------------

 2-el. integral transformation level 3: Total CPU and WALL times (sec)      94.281      94.269

 Fock matrix screening setting for this macro iteration: 10^( -9)

 Total MCSCF energy       :          -433.356778034394949  (MACRO    1)

 - Nuclear repulsion      :           416.970422364669560
 - Inactive energy        :          -835.476494655483748
 - Active energy          :           -14.850705743580782

 Norm of total gradient   :             1.695526388796
 -    of CI gradient      :             0.000219372020
 -    of orbital gradient :             1.695526374604
      Virial theorem: -V/T =      1.988165
@    MULPOP   C       1.99; C   _1 -0.21; C   _2 -0.21; C   _1  0.29; C   _2  0.29; C       0.36; N       1.00; O   _1 -0.50; O   _2 -0.50; H   _1 -0.54; 
@             H   _2 -0.54; H   _1 -0.47; H   _2 -0.47; H      -0.49; 

 Residual norm when dim(red L) =   7
 NEO root     CSF        orbital          total
    1     0.01588609     0.01969352     0.02530223 converged

 (NEONEX) NEO auxiliary root no.  1 is converged.

 Residual norm when dim(red L) =   8
 NEO root     CSF        orbital          total
    2     0.02933570     0.19037536     0.19262233 converged

 (NEONEX) NEO vector is converged.

   --- OUTPUT FROM SIRCNO     Keyword = FD+NO 


 Occupations of CAS natural orbitals:

 Symmetry  1 ( irrep A1  in C2v )

   1.995929508

 Symmetry  2 ( irrep B1  in C2v )

   0.004087146

 Symmetry  3 ( irrep B2  in C2v )

   1.999972775   1.999708863

 Symmetry  4 ( irrep A2  in C2v )

   1.000026688   1.999997559   1.000277461


 --- MACRO ITERATION  2 ---
 --------------------------

 2-el. integral transformation level 3: Total CPU and WALL times (sec)      94.062      94.082

 Fock matrix screening setting for this macro iteration: 10^( -9)

 Total MCSCF energy       :          -433.609146304832166  (MACRO    2)

 - Nuclear repulsion      :           416.970422364669560
 - Inactive energy        :          -835.330606392308937
 - Active energy          :           -15.248962277192801

 Norm of total gradient   :             0.247956098642
 -    of CI gradient      :             0.034030878849
 -    of orbital gradient :             0.245609702859
      Virial theorem: -V/T =      1.987477
@    MULPOP   C       2.37; C   _1 -0.14; C   _2 -0.14; C   _1  0.50; C   _2  0.50; C       0.38; N       0.62; O   _1 -0.66; O   _2 -0.66; H   _1 -0.63; 
@             H   _2 -0.63; H   _1 -0.52; H   _2 -0.52; H      -0.46; 

 Residual norm when dim(red L) =   9
 NEO root     CSF        orbital          total
    1     0.02201873     0.06666360     0.07020584 converged

 (NEONEX) NEO auxiliary root no.  1 is converged.

 (SIRNEO) iteration (  2,  5)
 Micro iteration termination criterion met, EVAL(ISTATE+1) = -1.78D-03

   --- OUTPUT FROM SIRCNO     Keyword = FD+NO 


 Occupations of CAS natural orbitals:

 Symmetry  1 ( irrep A1  in C2v )

   1.994488441

 Symmetry  2 ( irrep B1  in C2v )

   0.005552731

 Symmetry  3 ( irrep B2  in C2v )

   1.999974072   1.999478268

 Symmetry  4 ( irrep A2  in C2v )

   1.000025373   1.999998161   1.000482954


 --- MACRO ITERATION  3 ---
 --------------------------

 2-el. integral transformation level 3: Total CPU and WALL times (sec)      93.688      93.683

 Fock matrix screening setting for this macro iteration: 10^( -9)

 Total MCSCF energy       :          -433.616670306655919  (MACRO    3)

 - Nuclear repulsion      :           416.970422364669560
 - Inactive energy        :          -835.033786931880286
 - Active energy          :           -15.553305739445175

 Norm of total gradient   :             0.125488730201
 -    of CI gradient      :             0.018457487891
 -    of orbital gradient :             0.124123899988
      Virial theorem: -V/T =      1.990072
@    MULPOP   C       2.28; C   _1 -0.05; C   _2 -0.05; C   _1  0.48; C   _2  0.48; C       0.35; N       0.22; O   _1 -0.49; O   _2 -0.49; H   _1 -0.62; 
@             H   _2 -0.62; H   _1 -0.51; H   _2 -0.51; H      -0.46; 

 Residual norm when dim(red L) =   7
 NEO root     CSF        orbital          total
    1     0.06728202     0.02989186     0.07362332 converged

 (NEONEX) NEO auxiliary root no.  1 is converged.

 (SIRNEO) iteration (  3,  8)
 Micro iteration termination criterion met, EVAL(ISTATE+1) = -3.27D-03

   --- OUTPUT FROM SIRCNO     Keyword = FD+NO 


 Occupations of CAS natural orbitals:

 Symmetry  1 ( irrep A1  in C2v )

   1.990645832

 Symmetry  2 ( irrep B1  in C2v )

   0.009359336

 Symmetry  3 ( irrep B2  in C2v )

   1.997911957   1.999834619

 Symmetry  4 ( irrep A2  in C2v )

   1.000163463   1.999999009   1.002085784


 --- MACRO ITERATION  4 ---
 --------------------------

 2-el. integral transformation level 3: Total CPU and WALL times (sec)      94.688      94.690

 Fock matrix screening setting for this macro iteration: 10^( -9)

 Total MCSCF energy       :          -433.619679253574759  (MACRO    4)

 - Nuclear repulsion      :           416.970422364669560
 - Inactive energy        :          -834.614488305380405
 - Active energy          :           -15.975613312863938

 Norm of total gradient   :             0.097419517473
 -    of CI gradient      :             0.037388156143
 -    of orbital gradient :             0.089959369523
      Virial theorem: -V/T =      1.990961
@    MULPOP   C       2.36; C   _1 -0.06; C   _2 -0.06; C   _1  0.54; C   _2  0.54; C       0.36; N      -0.05; O   _1 -0.46; O   _2 -0.46; H   _1 -0.63; 
@             H   _2 -0.63; H   _1 -0.51; H   _2 -0.51; H      -0.46; 

 Residual norm when dim(red L) =   6
 NEO root     CSF        orbital          total
    1     0.02985235     0.04019547     0.05006834 converged

 (NEONEX) NEO auxiliary root no.  1 is converged.

 (SIRNEO) iteration (  4,  8)
 Micro iteration termination criterion met, EVAL(ISTATE+1) = -8.77D-05

   --- OUTPUT FROM SIRCNO     Keyword = FD+NO 


 Occupations of CAS natural orbitals:

 Symmetry  1 ( irrep A1  in C2v )

   1.992567308

 Symmetry  2 ( irrep B1  in C2v )

   0.007448808

 Symmetry  3 ( irrep B2  in C2v )

   1.999869302   1.999425566

 Symmetry  4 ( irrep A2  in C2v )

   1.000114859   1.999998905   1.000575251


 --- MACRO ITERATION  5 ---
 --------------------------

 2-el. integral transformation level 3: Total CPU and WALL times (sec)      94.156      94.185

 Fock matrix screening setting for this macro iteration: 10^( -9)

 Total MCSCF energy       :          -433.620440727853122  (MACRO    5)

 - Nuclear repulsion      :           416.970422364669560
 - Inactive energy        :          -833.778901983770993
 - Active energy          :           -16.811961108751696

 Norm of total gradient   :             0.047130712712
 -    of CI gradient      :             0.038221995688
 -    of orbital gradient :             0.027575045355
      Virial theorem: -V/T =      1.992131
@    MULPOP   C       2.22; C   _1 -0.25; C   _2 -0.25; C   _1  0.58; C   _2  0.58; C       0.52; N      -0.01; O   _1 -0.35; O   _2 -0.35; H   _1 -0.62; 
@             H   _2 -0.62; H   _1 -0.50; H   _2 -0.50; H      -0.46; 

 Residual norm when dim(red L) =  10
 NEO root     CSF        orbital          total
    1     0.02525313     0.02605441     0.03628433 converged

 (NEONEX) NEO auxiliary root no.  1 is converged.

 (SIRNEO) iteration (  5, 13)
 Micro iteration termination criterion met, EVAL(ISTATE+1) = -5.51D-05

   --- OUTPUT FROM SIRCNO     Keyword = FD+NO 


 Occupations of CAS natural orbitals:

 Symmetry  1 ( irrep A1  in C2v )

   1.992246873

 Symmetry  2 ( irrep B1  in C2v )

   0.007765324

 Symmetry  3 ( irrep B2  in C2v )

   1.999920439   1.999170024

 Symmetry  4 ( irrep A2  in C2v )

   1.000073172   1.999998849   1.000825319


 --- MACRO ITERATION  6 ---
 --------------------------

 2-el. integral transformation level 3: Total CPU and WALL times (sec)      95.062      95.099

 Fock matrix screening setting for this macro iteration: 10^( -9)

 Total MCSCF energy       :          -433.620513171874506  (MACRO    6)

 - Nuclear repulsion      :           416.970422364669560
 - Inactive energy        :          -833.642564888449670
 - Active energy          :           -16.948370648094397

 Norm of total gradient   :             0.045864023158
 -    of CI gradient      :             0.038058722815
 -    of orbital gradient :             0.025593792957
      Virial theorem: -V/T =      1.993014
@    MULPOP   C       2.12; C   _1 -0.28; C   _2 -0.28; C   _1  0.61; C   _2  0.61; C       0.62; N      -0.22; O   _1 -0.24; O   _2 -0.24; H   _1 -0.61; 
@             H   _2 -0.61; H   _1 -0.50; H   _2 -0.50; H      -0.46; 

 Residual norm when dim(red L) =   6
 NEO root     CSF        orbital          total
    1     0.03320162     0.02802791     0.04345010 converged

 (NEONEX) NEO auxiliary root no.  1 is converged.

 (ORTBVC) new orbital b-vector no.  1
 is removed because of linear dependence;
 norm of vector after Gram-Schmidt's orthogonalization 1.45283D-15

 (ORTBVC) NBOSIM reduced from  1 to  0

 (SIRNEO) iteration (  6, 14)
 microiterations stopped because of linear dependence

   --- OUTPUT FROM SIRCNO     Keyword = FD+NO 


 Occupations of CAS natural orbitals:

 Symmetry  1 ( irrep A1  in C2v )

   1.992382211

 Symmetry  2 ( irrep B1  in C2v )

   0.007625258

 Symmetry  3 ( irrep B2  in C2v )

   1.999860508   1.999480408

 Symmetry  4 ( irrep A2  in C2v )

   1.000133795   1.999998872   1.000518947


 --- MACRO ITERATION  7 ---
 --------------------------

 2-el. integral transformation level 3: Total CPU and WALL times (sec)      93.891      93.895

 Fock matrix screening setting for this macro iteration: 10^( -9)

 Total MCSCF energy       :          -433.620584767345349  (MACRO    7)

 - Nuclear repulsion      :           416.970422364669560
 - Inactive energy        :          -833.636142561090196
 - Active energy          :           -16.954864570924709

 Norm of total gradient   :             0.044968405979
 -    of CI gradient      :             0.037031455292
 -    of orbital gradient :             0.025511347578
      Virial theorem: -V/T =      1.992795
@    MULPOP   C       2.16; C   _1 -0.25; C   _2 -0.25; C   _1  0.57; C   _2  0.57; C       0.49; N       0.04; O   _1 -0.31; O   _2 -0.31; H   _1 -0.62; 
@             H   _2 -0.62; H   _1 -0.50; H   _2 -0.50; H      -0.46; 

 Residual norm when dim(red L) =   6
 NEO root     CSF        orbital          total
    1     0.03423819     0.02727813     0.04377614 converged

 (NEONEX) NEO auxiliary root no.  1 is converged.

 (SIRNEO) iteration (  7, 24)
 maximum number of microiterations reached

   --- OUTPUT FROM SIRCNO     Keyword = FD+NO 


 Occupations of CAS natural orbitals:

 Symmetry  1 ( irrep A1  in C2v )

   1.992157140

 Symmetry  2 ( irrep B1  in C2v )

   0.007848990

 Symmetry  3 ( irrep B2  in C2v )

   1.999905865   1.999257474

 Symmetry  4 ( irrep A2  in C2v )

   1.000092654   1.999998799   1.000739079


 --- MACRO ITERATION  8 ---
 --------------------------

 2-el. integral transformation level 3: Total CPU and WALL times (sec)      94.281      94.302

 Fock matrix screening setting for this macro iteration: 10^( -9)

 Total MCSCF energy       :          -433.620621948865221  (MACRO    8)

 - Nuclear repulsion      :           416.970422364669560
 - Inactive energy        :          -833.513139713266924
 - Active energy          :           -17.077904600267861

 Norm of total gradient   :             0.044548074142
 -    of CI gradient      :             0.037389653612
 -    of orbital gradient :             0.024218685194
      Virial theorem: -V/T =      1.993532
@    MULPOP   C       2.08; C   _1 -0.27; C   _2 -0.27; C   _1  0.60; C   _2  0.60; C       0.60; N      -0.24; O   _1 -0.20; O   _2 -0.20; H   _1 -0.61; 
@             H   _2 -0.61; H   _1 -0.50; H   _2 -0.50; H      -0.46; 

 Residual norm when dim(red L) =   6
 NEO root     CSF        orbital          total
    1     0.03586852     0.02537891     0.04393905 converged

 (NEONEX) NEO auxiliary root no.  1 is converged.

 (SIRNEO) iteration (  8, 24)
 maximum number of microiterations reached

   --- OUTPUT FROM SIRCNO     Keyword = FD+NO 


 Occupations of CAS natural orbitals:

 Symmetry  1 ( irrep A1  in C2v )

   1.991461527

 Symmetry  2 ( irrep B1  in C2v )

   0.008546725

 Symmetry  3 ( irrep B2  in C2v )

   1.999935224   1.998720453

 Symmetry  4 ( irrep A2  in C2v )

   1.000064389   1.999998656   1.001273027


 --- MACRO ITERATION  9 ---
 --------------------------

 2-el. integral transformation level 3: Total CPU and WALL times (sec)      94.922      94.923

 Fock matrix screening setting for this macro iteration: 10^( -9)

 Total MCSCF energy       :          -433.621029024862651  (MACRO    9)

 - Nuclear repulsion      :           416.970422364669560
 - Inactive energy        :          -833.443410198287324
 - Active energy          :           -17.148041191244879

 Norm of total gradient   :             0.045221153174
 -    of CI gradient      :             0.038628637071
 -    of orbital gradient :             0.023511297122
      Virial theorem: -V/T =      1.991778
@    MULPOP   C       2.36; C   _1 -0.17; C   _2 -0.17; C   _1  0.62; C   _2  0.62; C       0.77; N      -0.79; O   _1 -0.29; O   _2 -0.29; H   _1 -0.61; 
@             H   _2 -0.61; H   _1 -0.50; H   _2 -0.50; H      -0.45; 

 Residual norm when dim(red L) =   6
 NEO root     CSF        orbital          total
    1     0.03189368     0.01315575     0.03450044 converged

 (NEONEX) NEO auxiliary root no.  1 is converged.

 (SIRNEO) iteration (  9, 24)
 maximum number of microiterations reached

   --- OUTPUT FROM SIRCNO     Keyword = FD+NO 


 Occupations of CAS natural orbitals:

 Symmetry  1 ( irrep A1  in C2v )

   1.990677952

 Symmetry  2 ( irrep B1  in C2v )

   0.009336017

 Symmetry  3 ( irrep B2  in C2v )

   1.999979151   1.997749427

 Symmetry  4 ( irrep A2  in C2v )

   1.000020573   1.999998521   1.002238360


 --- MACRO ITERATION 10 ---
 --------------------------

 2-el. integral transformation level 3: Total CPU and WALL times (sec)      94.594      94.600

 Fock matrix screening setting for this macro iteration: 10^( -9)

 Total MCSCF energy       :          -433.621570136931837  (MACRO   10)

 - Nuclear repulsion      :           416.970422364669560
 - Inactive energy        :          -833.682076012411699
 - Active energy          :           -16.909916489189683

 Norm of total gradient   :             0.046316994428
 -    of CI gradient      :             0.040223658959
 -    of orbital gradient :             0.022963476060
      Virial theorem: -V/T =      1.989924
@    MULPOP   C       2.80; C   _1  0.07; C   _2  0.07; C   _1  0.48; C   _2  0.48; C       0.54; N      -0.81; O   _1 -0.48; O   _2 -0.48; H   _1 -0.61; 
@             H   _2 -0.61; H   _1 -0.50; H   _2 -0.50; H      -0.46; 

 Residual norm when dim(red L) =   6
 NEO root     CSF        orbital          total
    1     0.03713154     0.02261440     0.04347600 converged

 (NEONEX) NEO auxiliary root no.  1 is converged.

 (SIRNEO) iteration ( 10, 15)
 Micro iteration termination criterion met, EVAL(ISTATE+1) = -6.13D-05

   --- OUTPUT FROM SIRCNO     Keyword = FD+NO 


[...]
      ----------------------------------------------------------------
         1    1.47871D+03  1.94D+02  1.47D+03  1.96D+04    1.16800D-01

 ** RSPCTL MICROITERATION NUMBER    3

 *** INFO, negative eigenvalues in reduced matrix. Symmetry  1,  triplet       F Dimension of reduced matrix =     8

 GP * SOLUTION vector at frequency     0.11680 a.u.
 after    4 linear transformations is     -2.18862921D+07
 INERTIA (POS,ZER,NEG) of reduced matrix is    7    0    1
 Determinant of reduced matrix is -4.89 * 10 ** -8.0

       No.  Residual tot.,    conf., and orb.    Bnorm      Frequency 
      ----------------------------------------------------------------
         1    1.03467D+04  1.25D+03  1.03D+04  1.16D+05    1.16800D-01

 ** RSPCTL MICROITERATION NUMBER    4

 *** INFO, negative eigenvalues in reduced matrix. Symmetry  1,  triplet       F Dimension of reduced matrix =    10

 GP * SOLUTION vector at frequency     0.11680 a.u.
 after    5 linear transformations is      1.27502244D+06
 INERTIA (POS,ZER,NEG) of reduced matrix is    9    0    1
 Determinant of reduced matrix is -4.27 * 10 ** -8.0

       No.  Residual tot.,    conf., and orb.    Bnorm      Frequency 
      ----------------------------------------------------------------
         1    8.97586D+02  1.35D+02  8.87D+02  1.15D+04    1.16800D-01

 ** RSPCTL MICROITERATION NUMBER    5

 *** INFO, negative eigenvalues in reduced matrix. Symmetry  1,  triplet       F Dimension of reduced matrix =    12

 GP * SOLUTION vector at frequency     0.11680 a.u.
 after    6 linear transformations is      1.70338266D+06
 INERTIA (POS,ZER,NEG) of reduced matrix is   11    0    1
 Determinant of reduced matrix is -1.51 * 10 ** -9.0

       No.  Residual tot.,    conf., and orb.    Bnorm      Frequency 
      ----------------------------------------------------------------
         1    3.71219D+02  1.37D+02  3.45D+02  1.14D+04    1.16800D-01

 ** RSPCTL MICROITERATION NUMBER    6

 *** INFO, negative eigenvalues in reduced matrix. Symmetry  1,  triplet       F Dimension of reduced matrix =    14

 GP * SOLUTION vector at frequency     0.11680 a.u.
 after    7 linear transformations is      1.77609862D+06
 INERTIA (POS,ZER,NEG) of reduced matrix is   13    0    1
 Determinant of reduced matrix is -5.09 * 10 **-11.0

       No.  Residual tot.,    conf., and orb.    Bnorm      Frequency 
      ----------------------------------------------------------------
         1    2.09847D+02  1.38D+02  1.58D+02  1.15D+04    1.16800D-01

 ** RSPCTL MICROITERATION NUMBER    7

 *** INFO, negative eigenvalues in reduced matrix. Symmetry  1,  triplet       F Dimension of reduced matrix =    16

 GP * SOLUTION vector at frequency     0.11680 a.u.
 after    8 linear transformations is      1.79302579D+06
 INERTIA (POS,ZER,NEG) of reduced matrix is   15    0    1
 Determinant of reduced matrix is -2.11 * 10 **-12.0

       No.  Residual tot.,    conf., and orb.    Bnorm      Frequency 
      ----------------------------------------------------------------
         1    1.54437D+02  1.39D+02  6.71D+01  1.15D+04    1.16800D-01

 ** RSPCTL MICROITERATION NUMBER    8

 *** INFO, negative eigenvalues in reduced matrix. Symmetry  1,  triplet       F Dimension of reduced matrix =    18

 GP * SOLUTION vector at frequency     0.11680 a.u.
 after    9 linear transformations is      3.20097056D+06
 INERTIA (POS,ZER,NEG) of reduced matrix is   17    0    1
 Determinant of reduced matrix is -1.16 * 10 **-15.0

       No.  Residual tot.,    conf., and orb.    Bnorm      Frequency 
      ----------------------------------------------------------------
         1    1.39640D+04  1.12D+04  8.34D+03  6.47D+04    1.16800D-01

 ** RSPCTL MICROITERATION NUMBER    9

 *** INFO, negative eigenvalues in reduced matrix. Symmetry  1,  triplet       F Dimension of reduced matrix =    20

 GP * SOLUTION vector at frequency     0.11680 a.u.
 after   10 linear transformations is      1.78428749D+06
 INERTIA (POS,ZER,NEG) of reduced matrix is   18    0    2
 Determinant of reduced matrix is  1.55 * 10 **-13.0

       No.  Residual tot.,    conf., and orb.    Bnorm      Frequency 
      ----------------------------------------------------------------
         1    2.08400D+02  1.07D+01  2.08D+02  1.14D+04    1.16800D-01

 ** RSPCTL MICROITERATION NUMBER   10

 *** INFO, negative eigenvalues in reduced matrix. Symmetry  1,  triplet       F Dimension of reduced matrix =    22

 GP * SOLUTION vector at frequency     0.11680 a.u.
 after   11 linear transformations is      1.80779454D+06
 INERTIA (POS,ZER,NEG) of reduced matrix is   20    0    2
 Determinant of reduced matrix is  1.05 * 10 **-14.0

       No.  Residual tot.,    conf., and orb.    Bnorm      Frequency 
      ----------------------------------------------------------------
         1    8.99887D+01  2.31D+01  8.70D+01  1.15D+04    1.16800D-01

 ** RSPCTL MICROITERATION NUMBER   11

 *** INFO, negative eigenvalues in reduced matrix. Symmetry  1,  triplet       F Dimension of reduced matrix =    24

 GP * SOLUTION vector at frequency     0.11680 a.u.
 after   12 linear transformations is      1.77518037D+06
 INERTIA (POS,ZER,NEG) of reduced matrix is   20    0    4
 Determinant of reduced matrix is  1.80 * 10 **-18.0

       No.  Residual tot.,    conf., and orb.    Bnorm      Frequency 
      ----------------------------------------------------------------
         1    4.97148D+02  6.98D+01  4.92D+02  1.25D+04    1.16800D-01

 ** RSPCTL MICROITERATION NUMBER   12

 *** INFO, negative eigenvalues in reduced matrix. Symmetry  1,  triplet       F Dimension of reduced matrix =    26

 GP * SOLUTION vector at frequency     0.11680 a.u.
 after   13 linear transformations is      1.79354227D+06
 INERTIA (POS,ZER,NEG) of reduced matrix is   22    0    4
 Determinant of reduced matrix is  9.10 * 10 **-19.0

       No.  Residual tot.,    conf., and orb.    Bnorm      Frequency 
      ----------------------------------------------------------------
         1    1.23212D+02  1.95D+01  1.22D+02  1.15D+04    1.16800D-01

 ** RSPCTL MICROITERATION NUMBER   13

 *** INFO, negative eigenvalues in reduced matrix. Symmetry  1,  triplet       F Dimension of reduced matrix =    28

 GP * SOLUTION vector at frequency     0.11680 a.u.
 after   14 linear transformations is      1.79832506D+06
 INERTIA (POS,ZER,NEG) of reduced matrix is   24    0    4
 Determinant of reduced matrix is  6.64 * 10 **-20.0

       No.  Residual tot.,    conf., and orb.    Bnorm      Frequency 
      ----------------------------------------------------------------
         1    3.60650D+01  1.41D+01  3.32D+01  1.15D+04    1.16800D-01

 ** RSPCTL MICROITERATION NUMBER   14

 *** INFO, negative eigenvalues in reduced matrix. Symmetry  1,  triplet       F Dimension of reduced matrix =    30

 GP * SOLUTION vector at frequency     0.11680 a.u.
 after   15 linear transformations is      1.79909326D+06
 INERTIA (POS,ZER,NEG) of reduced matrix is   26    0    4
 Determinant of reduced matrix is  1.20 * 10 **-20.0

       No.  Residual tot.,    conf., and orb.    Bnorm      Frequency 
      ----------------------------------------------------------------
         1    1.79282D+01  1.36D+01  1.16D+01  1.15D+04    1.16800D-01

 ** RSPCTL MICROITERATION NUMBER   15

 *** INFO, negative eigenvalues in reduced matrix. Symmetry  1,  triplet       F Dimension of reduced matrix =    32

 GP * SOLUTION vector at frequency     0.11680 a.u.
 after   16 linear transformations is      1.79917925D+06
 INERTIA (POS,ZER,NEG) of reduced matrix is   28    0    4
 Determinant of reduced matrix is  2.90 * 10 **-20.0

       No.  Residual tot.,    conf., and orb.    Bnorm      Frequency 
      ----------------------------------------------------------------
         1    1.37829D+01  7.39D+00  1.16D+01  1.15D+04    1.16800D-01

 ** RSPCTL MICROITERATION NUMBER   16

 *** INFO, negative eigenvalues in reduced matrix. Symmetry  1,  triplet       F Dimension of reduced matrix =    34

 GP * SOLUTION vector at frequency     0.11680 a.u.
 after   17 linear transformations is      1.79925275D+06
 INERTIA (POS,ZER,NEG) of reduced matrix is   30    0    4
 Determinant of reduced matrix is  1.28 * 10 **-21.0

       No.  Residual tot.,    conf., and orb.    Bnorm      Frequency 
      ----------------------------------------------------------------
         1    9.05990D+00  7.26D+00  5.41D+00  1.15D+04    1.16800D-01

 *** THE REQUESTED    1 SOLUTION VECTORS CONVERGED

 Convergence of RSP solution vectors, threshold = 1.00D-03
 ---------------------------------------------------------------
 (dimension of paired reduced space:   34)
 RSP solution vector no.    1; norm of residual   7.90D-04

 *** RSPCTL MICROITERATIONS CONVERGED
    YDIPLEN     YDIPLEN      freq1     freq2                Norm
 ---------------------------------------------------------------
                          0.058400  0.058400      11466.65351521
  Time used in CRVEC2     is       2 hours 49 minutes 47 seconds


 ----- CALCULATING CONTRIBUTIONS TO SECOND HYPERPOLARIZABILITY -----


   Contribution                Term         Accumulated
 ------------------------------------------------------
 Na T[4] Nb Nc Nd    45605.63730964      45605.63730964
 Na T[3] Nx Nyz    -106532.50881500     -60926.87150537
 Na X[3] Ny Nz      109685.19403217      48758.32252680
 Nx A[3] Ny Nz       36561.73134406      85320.05387086
 Na X[2] Nyz       -208843.47181553    -123523.41794467
 Nx A[2] Nyz       -220840.70996437    -344364.12790904

@ Cubic response function value in a.u. for
@ A operator, symmetry, frequency:   ZDIPLEN    1 -0.058400
@ B operator, symmetry, frequency:   ZDIPLEN    1  0.058400
@ C operator, symmetry, frequency:   ZDIPLEN    1 -0.058400
@ D operator, symmetry, frequency:   ZDIPLEN    1  0.058400

@ << A; B, C, D >>  =     -344364.12790904



   Contribution                Term         Accumulated
 ------------------------------------------------------
 Na T[4] Nb Nc Nd  3536927.10740497    3536927.10740497
 Na T[3] Nx Nyz   -8256185.20255541   -4719258.09515044
 Na X[3] Ny Nz     7873018.85911519    3153760.76396475
 Nx A[3] Ny Nz       48324.99578607    3202085.75975082
 Na X[2] Nyz      15180815.51596002   18382901.27571084
 Nx A[2] Nyz      -1144407.85439492   17238493.42131592

@ Cubic response function value in a.u. for
@ A operator, symmetry, frequency:   XDIPLEN    2 -0.058400
@ B operator, symmetry, frequency:   XDIPLEN    2  0.058400
@ C operator, symmetry, frequency:   ZDIPLEN    1 -0.058400
@ D operator, symmetry, frequency:   ZDIPLEN    1  0.058400

@ << A; B, C, D >>  =    17238493.42131592



   Contribution                Term         Accumulated
 ------------------------------------------------------
 Na T[4] Nb Nc Nd    98056.19575500      98056.19575500
 Na T[3] Nx Nyz     520042.14566688     618098.34142189
 Na X[3] Ny Nz      259911.03400928     878009.37543117
 Nx A[3] Ny Nz        -440.06014768     877569.31528350
 Na X[2] Nyz       -524023.80563039     353545.50965311
 Nx A[2] Nyz      -4145095.31560113   -3791549.80594802

@ Cubic response function value in a.u. for
@ A operator, symmetry, frequency:   YDIPLEN    3 -0.058400
@ B operator, symmetry, frequency:   YDIPLEN    3  0.058400
@ C operator, symmetry, frequency:   ZDIPLEN    1 -0.058400
@ D operator, symmetry, frequency:   ZDIPLEN    1  0.058400

@ << A; B, C, D >>  =    -3791549.80594802



   Contribution                Term         Accumulated
 ------------------------------------------------------
 Na T[4] Nb Nc Nd   173060.21592897     173060.21592897
 Na T[3] Nx Nyz    1813036.10436180    1986096.32029077
 Na X[3] Ny Nz      445690.55467996    2431786.87497073
 Nx A[3] Ny Nz      -11104.52796568    2420682.34700505
 Na X[2] Nyz      -4600487.82017110   -2179805.47316604
 Nx A[2] Nyz      -1032872.70373451   -3212678.17690055

@ Cubic response function value in a.u. for
@ A operator, symmetry, frequency:   XDIPLEN    2 -0.058400
@ B operator, symmetry, frequency:   ZDIPLEN    1  0.058400
@ C operator, symmetry, frequency:   XDIPLEN    2 -0.058400
@ D operator, symmetry, frequency:   ZDIPLEN    1  0.058400

@ << A; B, C, D >>  =    -3212678.17690055



   Contribution                Term         Accumulated
 ------------------------------------------------------
 Na T[4] Nb Nc Nd      401.18288084        401.18288084
 Na T[3] Nx Nyz    -419389.00373817    -418987.82085732
 Na X[3] Ny Nz      -32272.20540726    -451260.02626458
 Nx A[3] Ny Nz       -1669.03462499    -452929.06088957
 Na X[2] Nyz       2725138.46888949    2272209.40799991
 Nx A[2] Nyz       1408310.63249579    3680520.04049570

@ Cubic response function value in a.u. for
@ A operator, symmetry, frequency:   YDIPLEN    3 -0.058400
@ B operator, symmetry, frequency:   ZDIPLEN    1  0.058400
@ C operator, symmetry, frequency:   YDIPLEN    3 -0.058400
@ D operator, symmetry, frequency:   ZDIPLEN    1  0.058400

@ << A; B, C, D >>  =     3680520.04049570



   Contribution                Term         Accumulated
 ------------------------------------------------------
 Na T[4] Nb Nc Nd    78385.07152298      78385.07152298
 Na T[3] Nx Nyz    -748247.00217838    -669861.93065540
 Na X[3] Ny Nz      224340.37242185    -445521.55823355
 Nx A[3] Ny Nz      234448.17033295    -211073.38790060
 Na X[2] Nyz        184533.81571901     -26539.57218160
 Nx A[2] Nyz      -3189172.55667625   -3215712.12885785

@ Cubic response function value in a.u. for
@ A operator, symmetry, frequency:   ZDIPLEN    1 -0.058400
@ B operator, symmetry, frequency:   XDIPLEN    2  0.058400
@ C operator, symmetry, frequency:   ZDIPLEN    1 -0.058400
@ D operator, symmetry, frequency:   XDIPLEN    2  0.058400

@ << A; B, C, D >>  =    -3215712.12885785



   Contribution                Term         Accumulated
 ------------------------------------------------------
 Na T[4] Nb Nc Nd 64023019.13529481   64023019.13529481
 Na T[3] Nx Nyz-1636499618.02589965-1572476598.89060473
 Na X[3] Ny Nz   170428375.44672886-1402048223.44387555
 Nx A[3] Ny Nz    56809458.48224317-1345238764.96163225
 Na X[2] Nyz      50214873.87161496-1295023891.09001732
 Nx A[2] Nyz      46466162.48729211-1248557728.60272527

@ Cubic response function value in a.u. for
@ A operator, symmetry, frequency:   XDIPLEN    2 -0.058400
@ B operator, symmetry, frequency:   XDIPLEN    2  0.058400
@ C operator, symmetry, frequency:   XDIPLEN    2 -0.058400
@ D operator, symmetry, frequency:   XDIPLEN    2  0.058400

@ << A; B, C, D >>  = -1248557728.60272527



   Contribution                Term         Accumulated
 ------------------------------------------------------
 Na T[4] Nb Nc Nd  1719062.83698957    1719062.83698957
 Na T[3] Nx Nyz   36918856.98031819   38637919.81730776
 Na X[3] Ny Nz     1482027.21759530   40119947.03490305
 Nx A[3] Ny Nz     -752928.94797055   39367018.08693250
 Na X[2] Nyz      -8755514.69609724   30611503.39083526
 Nx A[2] Nyz    -500813818.44122297 -470202315.05038768

@ Cubic response function value in a.u. for
@ A operator, symmetry, frequency:   YDIPLEN    3 -0.058400
@ B operator, symmetry, frequency:   YDIPLEN    3  0.058400
@ C operator, symmetry, frequency:   XDIPLEN    2 -0.058400
@ D operator, symmetry, frequency:   XDIPLEN    2  0.058400

@ << A; B, C, D >>  =  -470202315.05038768



   Contribution                Term         Accumulated
 ------------------------------------------------------
 Na T[4] Nb Nc Nd    -7851.12373726      -7851.12373726
 Na T[3] Nx Nyz   -2095536.55525222   -2103387.67898947
 Na X[3] Ny Nz     -270957.73373445   -2374345.41272392
 Nx A[3] Ny Nz      -29905.60287191   -2404251.01559583
 Na X[2] Nyz      24999654.17904103   22595403.16344520
 Nx A[2] Nyz      22240010.80166209   44835413.96510728

@ Cubic response function value in a.u. for
@ A operator, symmetry, frequency:   YDIPLEN    3 -0.058400
@ B operator, symmetry, frequency:   XDIPLEN    2  0.058400
@ C operator, symmetry, frequency:   YDIPLEN    3 -0.058400
@ D operator, symmetry, frequency:   XDIPLEN    2  0.058400

@ << A; B, C, D >>  =    44835413.96510728



   Contribution                Term         Accumulated
 ------------------------------------------------------
 Na T[4] Nb Nc Nd    -4314.63998054      -4314.63998054
 Na T[3] Nx Nyz    -631354.93054174    -635669.57052228
 Na X[3] Ny Nz      -15476.74158516    -651146.31210744
 Nx A[3] Ny Nz      -14247.28103915    -665393.59314659
 Na X[2] Nyz       1505925.54206051     840531.94891392
 Nx A[2] Nyz       2839710.90563643    3680242.85455035

@ Cubic response function value in a.u. for
@ A operator, symmetry, frequency:   ZDIPLEN    1 -0.058400
@ B operator, symmetry, frequency:   YDIPLEN    3  0.058400
@ C operator, symmetry, frequency:   ZDIPLEN    1 -0.058400
@ D operator, symmetry, frequency:   YDIPLEN    3  0.058400

@ << A; B, C, D >>  =     3680242.85455035



   Contribution                Term         Accumulated
 ------------------------------------------------------
 Na T[4] Nb Nc Nd   -33060.43152987     -33060.43152987
 Na T[3] Nx Nyz    1627678.60116455    1594618.16963467
 Na X[3] Ny Nz     -142897.62629469    1451720.54333998
 Nx A[3] Ny Nz     -108046.18380446    1343674.35953552
 Na X[2] Nyz      20276236.59796711   21619910.95750263
 Nx A[2] Nyz      23246121.24557716   44866032.20307979

@ Cubic response function value in a.u. for
@ A operator, symmetry, frequency:   XDIPLEN    2 -0.058400
@ B operator, symmetry, frequency:   YDIPLEN    3  0.058400
@ C operator, symmetry, frequency:   XDIPLEN    2 -0.058400
@ D operator, symmetry, frequency:   YDIPLEN    3  0.058400

@ << A; B, C, D >>  =    44866032.20307979



   Contribution                Term         Accumulated
 ------------------------------------------------------
 Na T[4] Nb Nc Nd   197567.30846957     197567.30846957
 Na T[3] Nx Nyz   -1327762.07483177   -1130194.76636220
 Na X[3] Ny Nz     -122975.64892977   -1253170.41529196
 Nx A[3] Ny Nz      -40991.88297659   -1294162.29826855
 Na X[2] Nyz      -1170328.17453164   -2464490.47280020
 Nx A[2] Nyz      -1171499.71440062   -3635990.18720081

@ Cubic response function value in a.u. for
@ A operator, symmetry, frequency:   YDIPLEN    3 -0.058400
@ B operator, symmetry, frequency:   YDIPLEN    3  0.058400
@ C operator, symmetry, frequency:   YDIPLEN    3 -0.058400
@ D operator, symmetry, frequency:   YDIPLEN    3  0.058400

@ << A; B, C, D >>  =    -3635990.18720081



  Summary of gamma values for a set of frequencies
 -------------------------------------------------

@ B-freq:  0.058400
@ C-freq: -0.058400
@ D-freq:  0.058400

@ gamma(X;X,X,X) 1248557728.6027
@ gamma(X;X,Y,Y)  470202315.0504
@ gamma(X;Y,Y,X)  470202315.0504
@ gamma(X;Y,X,Y)  -44866032.2031
@ gamma(X;X,Z,Z)  -17238493.4213
@ gamma(X;Z,Z,X)  -17238493.4213
@ gamma(X;Z,X,Z)    3212678.1769
@ gamma(Y;Y,X,X)  470202315.0504
@ gamma(Y;X,X,Y)  470202315.0504
@ gamma(Y;X,Y,X)  -44835413.9651
@ gamma(Y;Y,Y,Y)    3635990.1872
@ gamma(Y;Y,Z,Z)    3791549.8059
@ gamma(Y;Z,Z,Y)    3791549.8059
@ gamma(Y;Z,Y,Z)   -3680520.0405
@ gamma(Z;Z,X,X)  -17238493.4213
@ gamma(Z;X,X,Z)  -17238493.4213
@ gamma(Z;X,Z,X)    3215712.1289
@ gamma(Z;Z,Y,Y)    3791549.8059
@ gamma(Z;Y,Y,Z)    3791549.8059
@ gamma(Z;Y,Z,Y)   -3680242.8546
@ gamma(Z;Z,Z,Z)     344364.1279

@ Averaged gamma parallel to the applied field is 366266794.382407

  Total CPU  time used in RESPONSE:   7 hours 24 minutes 52 seconds
  Total wall time used in RESPONSE:   7 hours 24 minutes 57 seconds


                   .-------------------------------------------.
                   | End of Dynamic Property Section (RESPONS) |
                   `-------------------------------------------'

  Total CPU  time used in DALTON:  11 hours 49 minutes 10 seconds
  Total wall time used in DALTON:  11 hours 49 minutes 19 seconds

 
     Date and time (Linux)  : Tue Jan 21 09:00:21 2020
     Host name              : Lab2-333-NPs                            
