

     ************************************************************************
     *************** Dalton - An Electronic Structure Program ***************
     ************************************************************************

    This is output from DALTON release Dalton2018.1 (2019)
         ( Web site: http://daltonprogram.org )

   ----------------------------------------------------------------------------

    NOTE:
     
    Dalton is an experimental code for the evaluation of molecular
    properties using (MC)SCF, DFT, CI, and CC wave functions.
    The authors accept no responsibility for the performance of
    the code or for the correctness of the results.
     
    The code (in whole or part) is provided under a licence and
    is not to be reproduced for further distribution without
    the written permission of the authors or their representatives.
     
    See the home page "http://daltonprogram.org" for further information.
     
    If results obtained with this code are published,
    the appropriate citations would be both of:
     
       K. Aidas, C. Angeli, K. L. Bak, V. Bakken, R. Bast,
       L. Boman, O. Christiansen, R. Cimiraglia, S. Coriani,
       P. Dahle, E. K. Dalskov, U. Ekstroem,
       T. Enevoldsen, J. J. Eriksen, P. Ettenhuber, B. Fernandez,
       L. Ferrighi, H. Fliegl, L. Frediani, K. Hald, A. Halkier,
       C. Haettig, H. Heiberg, T. Helgaker, A. C. Hennum,
       H. Hettema, E. Hjertenaes, S. Hoest, I.-M. Hoeyvik,
       M. F. Iozzi, B. Jansik, H. J. Aa. Jensen, D. Jonsson,
       P. Joergensen, J. Kauczor, S. Kirpekar,
       T. Kjaergaard, W. Klopper, S. Knecht, R. Kobayashi, H. Koch,
       J. Kongsted, A. Krapp, K. Kristensen, A. Ligabue,
       O. B. Lutnaes, J. I. Melo, K. V. Mikkelsen, R. H. Myhre,
       C. Neiss, C. B. Nielsen, P. Norman, J. Olsen,
       J. M. H. Olsen, A. Osted, M. J. Packer, F. Pawlowski,
       T. B. Pedersen, P. F. Provasi, S. Reine, Z. Rinkevicius,
       T. A. Ruden, K. Ruud, V. Rybkin, P. Salek, C. C. M. Samson,
       A. Sanchez de Meras, T. Saue, S. P. A. Sauer,
       B. Schimmelpfennig, K. Sneskov, A. H. Steindal,
       K. O. Sylvester-Hvid, P. R. Taylor, A. M. Teale,
       E. I. Tellgren, D. P. Tew, A. J. Thorvaldsen, L. Thoegersen,
       O. Vahtras, M. A. Watson, D. J. D. Wilson, M. Ziolkowski
       and H. Agren,
       "The Dalton quantum chemistry program system",
       WIREs Comput. Mol. Sci. 2014, 4:269–284 (doi: 10.1002/wcms.1172)
     
    and
     
       Dalton, a molecular electronic structure program,
       Release Dalton2018.1 (2019), see http://daltonprogram.org
   ----------------------------------------------------------------------------

    Authors in alphabetical order (major contribution(s) in parenthesis):

  Kestutis Aidas,           Vilnius University,           Lithuania   (QM/MM)
  Celestino Angeli,         University of Ferrara,        Italy       (NEVPT2)
  Keld L. Bak,              UNI-C,                        Denmark     (AOSOPPA, non-adiabatic coupling, magnetic properties)
  Vebjoern Bakken,          University of Oslo,           Norway      (DALTON; geometry optimizer, symmetry detection)
  Radovan Bast,             UiT The Arctic U. of Norway,  Norway      (DALTON installation and execution frameworks)
  Pablo Baudin,             University of Valencia,       Spain       (Cholesky excitation energies)
  Linus Boman,              NTNU,                         Norway      (Cholesky decomposition and subsystems)
  Ove Christiansen,         Aarhus University,            Denmark     (CC module)
  Renzo Cimiraglia,         University of Ferrara,        Italy       (NEVPT2)
  Sonia Coriani,            Technical Univ. of Denmark,   Denmark     (CC module, MCD in RESPONS)
  Janusz Cukras,            University of Trieste,        Italy       (MChD in RESPONS)
  Paal Dahle,               University of Oslo,           Norway      (Parallelization)
  Erik K. Dalskov,          UNI-C,                        Denmark     (SOPPA)
  Thomas Enevoldsen,        Univ. of Southern Denmark,    Denmark     (SOPPA)
  Janus J. Eriksen,         Aarhus University,            Denmark     (Polarizable embedding model, TDA)
  Rasmus Faber,             University of Copenhagen,     Denmark     (Vib.avg. NMR with SOPPA, parallel AO-SOPPA)
  Tobias Fahleson,          KTH Stockholm,                Sweden      (Damped cubic response)
  Berta Fernandez,          U. of Santiago de Compostela, Spain       (doublet spin, ESR in RESPONS)
  Lara Ferrighi,            Aarhus University,            Denmark     (PCM Cubic response)
  Heike Fliegl,             University of Oslo,           Norway      (CCSD(R12))
  Luca Frediani,            UiT The Arctic U. of Norway,  Norway      (PCM)
  Bin Gao,                  UiT The Arctic U. of Norway,  Norway      (Gen1Int library)
  Christof Haettig,         Ruhr-University Bochum,       Germany     (CC module)
  Kasper Hald,              Aarhus University,            Denmark     (CC module)
  Asger Halkier,            Aarhus University,            Denmark     (CC module)
  Frederik Beyer Hansen,    University of Copenhagen,     Denmark     (Parallel AO-SOPPA)
  Erik D. Hedegaard,        Univ. of Southern Denmark,    Denmark     (Polarizable embedding model, QM/MM)
  Hanne Heiberg,            University of Oslo,           Norway      (geometry analysis, selected one-electron integrals)
  Trygve Helgaker,          University of Oslo,           Norway      (DALTON; ABACUS, ERI, DFT modules, London, and much more)
  Alf Christian Hennum,     University of Oslo,           Norway      (Parity violation)
  Hinne Hettema,            University of Auckland,       New Zealand (quadratic response in RESPONS; SIRIUS supersymmetry)
  Eirik Hjertenaes,         NTNU,                         Norway      (Cholesky decomposition)
  Pi A. B. Haase,           University of Copenhagen,     Denmark     (Triplet AO-SOPPA)
  Maria Francesca Iozzi,    University of Oslo,           Norway      (RPA)
  Christoph Jacob           TU Braunschweig               Germany     (Frozen density embedding model)
  Brano Jansik              Technical Univ. of Ostrava    Czech Rep.  (DFT cubic response)
  Hans Joergen Aa. Jensen,  Univ. of Southern Denmark,    Denmark     (DALTON; SIRIUS, RESPONS, ABACUS modules, London, and much more)
  Dan Jonsson,              UiT The Arctic U. of Norway,  Norway      (cubic response in RESPONS module)
  Poul Joergensen,          Aarhus University,            Denmark     (RESPONS, ABACUS, and CC modules)
  Maciej Kaminski,          University of Warsaw,         Poland      (CPPh in RESPONS)
  Joanna Kauczor,           Linkoeping University,        Sweden      (Complex polarization propagator (CPP) module)
  Sheela Kirpekar,          Univ. of Southern Denmark,    Denmark     (Mass-velocity & Darwin integrals)
  Wim Klopper,              KIT Karlsruhe,                Germany     (R12 code in CC, SIRIUS, and ABACUS modules)
  Stefan Knecht,            ETH Zurich,                   Switzerland (Parallel CI and MCSCF)
  Rika Kobayashi,           Australian National Univ.,    Australia   (DIIS in CC, London in MCSCF)
  Henrik Koch,              NTNU,                         Norway      (CC module, Cholesky decomposition)
  Jacob Kongsted,           Univ. of Southern Denmark,    Denmark     (Polarizable embedding model, QM/MM)
  Andrea Ligabue,           University of Modena,         Italy       (CTOCD, AOSOPPA)
  Nanna H. List             Univ. of Southern Denmark,    Denmark     (Polarizable embedding model)
  Ola B. Lutnaes,           University of Oslo,           Norway      (DFT Hessian)
  Juan I. Melo,             University of Buenos Aires,   Argentina   (LRESC, Relativistic Effects on NMR Shieldings)
  Kurt V. Mikkelsen,        University of Copenhagen,     Denmark     (MC-SCRF and QM/MM)
  Rolf H. Myhre,            NTNU,                         Norway      (Subsystems and CC3)
  Christian Neiss,          Univ. Erlangen-Nuernberg,     Germany     (CCSD(R12))
  Christian B. Nielsen,     University of Copenhagen,     Denmark     (QM/MM)
  Patrick Norman,           KTH Stockholm,                Sweden      (Cubic response and complex frequency response in RESPONS)
  Jeppe Olsen,              Aarhus University,            Denmark     (SIRIUS CI/density modules)
  Jogvan Magnus H. Olsen,   Univ. of Southern Denmark,    Denmark     (Polarizable embedding model, QM/MM)
  Anders Osted,             Copenhagen University,        Denmark     (QM/MM)
  Martin J. Packer,         University of Sheffield,      UK          (SOPPA)
  Filip Pawlowski,          Kazimierz Wielki University,  Poland      (CC3)
  Morten N. Pedersen,       Univ. of Southern Denmark,    Denmark     (Polarizable embedding model)
  Thomas B. Pedersen,       University of Oslo,           Norway      (Cholesky decomposition)
  Patricio F. Provasi,      University of Northeastern,   Argentina   (Analysis of coupling constants in localized orbitals)
  Zilvinas Rinkevicius,     KTH Stockholm,                Sweden      (open-shell DFT, ESR)
  Elias Rudberg,            KTH Stockholm,                Sweden      (DFT grid and basis info)
  Torgeir A. Ruden,         University of Oslo,           Norway      (Numerical derivatives in ABACUS)
  Kenneth Ruud,             UiT The Arctic U. of Norway,  Norway      (DALTON; ABACUS magnetic properties and much more)
  Pawel Salek,              KTH Stockholm,                Sweden      (DALTON; DFT code)
  Claire C. M. Samson       University of Karlsruhe       Germany     (Boys localization, r12 integrals in ERI)
  Alfredo Sanchez de Meras, University of Valencia,       Spain       (CC module, Cholesky decomposition)
  Trond Saue,               Paul Sabatier University,     France      (direct Fock matrix construction)
  Stephan P. A. Sauer,      University of Copenhagen,     Denmark     (SOPPA(CCSD), SOPPA prop., AOSOPPA, vibrational g-factors)
  Andre S. P. Gomes,        CNRS/Universite de Lille,     France      (Frozen density embedding model)
  Bernd Schimmelpfennig,    Forschungszentrum Karlsruhe,  Germany     (AMFI module)
  Kristian Sneskov,         Aarhus University,            Denmark     (Polarizable embedding model, QM/MM)
  Arnfinn H. Steindal,      UiT The Arctic U. of Norway,  Norway      (parallel QM/MM, Polarizable embedding model)
  Casper Steinmann,         Univ. of Southern Denmark,    Denmark     (QFIT, Polarizable embedding model)
  K. O. Sylvester-Hvid,     University of Copenhagen,     Denmark     (MC-SCRF)
  Peter R. Taylor,          VLSCI/Univ. of Melbourne,     Australia   (Symmetry handling ABACUS, integral transformation)
  Andrew M. Teale,          University of Nottingham,     England     (DFT-AC, DFT-D)
  David P. Tew,             University of Bristol,        England     (CCSD(R12))
  Olav Vahtras,             KTH Stockholm,                Sweden      (triplet response, spin-orbit, ESR, TDDFT, open-shell DFT)
  Lucas Visscher,           Vrije Universiteit Amsterdam, Netherlands (Frozen density embedding model)
  David J. Wilson,          La Trobe University,          Australia   (DFT Hessian and DFT magnetizabilities)
  Hans Agren,               KTH Stockholm,                Sweden      (SIRIUS module, RESPONS, MC-SCRF solvation model)
 --------------------------------------------------------------------------------

     Date and time (Linux)  : Sat Jan 11 22:31:19 2020
     Host name              : Lab2-333-NPs                            

 * Work memory size             :  1024000000 =  7.629 gigabytes.

 * Directories for basis set searches:
   1) /home/lab333/dalton/build_2018_atlas
   2) /home/lab333/dalton/build_2018_atlas/basis


Compilation information
-----------------------

 Who compiled             | lab333
 Host                     | Lab2-333-NPs
 System                   | Linux-4.4.0-43-Microsoft
 CMake generator          | Unix Makefiles
 Processor                | x86_64
 64-bit integers          | OFF
 MPI                      | OFF
 Fortran compiler         | /usr/bin/gfortran
 Fortran compiler version | GNU Fortran (Ubuntu 7.3.0-27ubuntu1~18.04) 7.3.0
 C compiler               | /usr/bin/gcc
 C compiler version       | gcc (Ubuntu 7.3.0-27ubuntu1~18.04) 7.3.0
 C++ compiler             | /usr/bin/g++
 C++ compiler version     | g++ (Ubuntu 7.3.0-27ubuntu1~18.04) 7.3.0
 BLAS                     | /usr/lib/x86_64-linux-gnu/libf77blas.so;/usr/lib/x
                          | 86_64-linux-gnu/libcblas.so;/usr/lib/x86_64-linux-
                          | gnu/libatlas.so
 LAPACK                   | /usr/lib/x86_64-linux-gnu/libatlas.so;/usr/lib/x86
                          | _64-linux-gnu/atlas/liblapack.so
 Static linking           | OFF
 Last Git revision        | da625bf48c74028e805616daee31bc5d76b3a20d
 Git branch               | (HEAD detached at Dalton2018.1)
 Configuration time       | 2019-01-18 10:20:51.437510


   Content of the .dal input file
 ----------------------------------

**DALTON INPUT
.RUN RESPONSE
.DIRECT
**WAVE FUNCTIONS
.HF
.MP2
.MCSCF
*CONFIGURATION INPUT
.SPIN MULTIPLICITY
1
.SYMMETRY
1
.INACTIVE ORBITALS
15 10 2 0
.CAS SPACE
1 1 2 3
.ELECTRONS
10
*ORBITAL INPUT
.MOSTART
.HUCKEL
*OPTIMIZATION
.DETERMINANTS
.STATE
1
*CI VECTOR
.PLUS COMBINATIONS
**RESPONSE
*CUBIC
.DIPLEN
.BFREQ
1
0.0584
.CFREQ
1
-0.0584
.DFREQ
1
0.0584
**END OF DALTON INPUT


   Content of the .mol file
 ----------------------------

BASIS
aug-cc-pCVDZ
 nitrobenzene
 Generated by the Dalton Input File Plugin for Avogadro
Atomtypes=4 Angstrom Generators=2 X Y
Charge=6.0 Atoms=4
C        0.0000000000            0.0000000000           -0.0265759623
C       -1.2190534920            0.0000000000           -0.6979856948
C       -1.2105095870            0.0000000000           -2.0897394457
C        0.0000000000            0.0000000000           -2.7841484631
Charge=7.0 Atoms=1
N        0.0000000000            0.0000000000            1.4549291696
Charge=8.0 Atoms=1
O       0.6089937804374262            0.0            2.5175539478140214
Charge=1.0 Atoms=3
H       -2.1410602955            0.0000000000           -0.1327964319
H       -2.1492827751            0.0000000000           -2.6311811056
H        0.0000000000            0.0000000000           -3.8683953478


       *******************************************************************
       *********** Output from DALTON general input processing ***********
       *******************************************************************

 --------------------------------------------------------------------------------
   Overall default print level:    0
   Print level for DALTON.STAT:    1

    AO-direct calculation (in sections where implemented)
    HERMIT 1- and 2-electron integral sections will be executed
    "Old" integral transformation used (limited to max 255 basis functions)
    Wave function sections will be executed (SIRIUS module)
    Dynamic molecular response properties section will be executed (RESPONSE module)
 --------------------------------------------------------------------------------


   ****************************************************************************
   *************** Output of molecule and basis set information ***************
   ****************************************************************************


    The two title cards from your ".mol" input:
    ------------------------------------------------------------------------
 1:  nitrobenzene                                                           
 2:  Generated by the Dalton Input File Plugin for Avogadro                 
    ------------------------------------------------------------------------

  Coordinates are entered in Angstrom and converted to atomic units.
          - Conversion factor : 1 bohr = 0.52917721 A

  Atomic type no.    1
  --------------------
  Nuclear charge:   6.00000
  Number of symmetry independent centers:    4
  Number of basis sets to read;    2
  Basis set file used for this atomic type with Z =   6 :
     "/home/lab333/dalton/build_2018_atlas/basis/aug-cc-pCVDZ"

  Atomic type no.    2
  --------------------
  Nuclear charge:   7.00000
  Number of symmetry independent centers:    1
  Number of basis sets to read;    2
  Basis set file used for this atomic type with Z =   7 :
     "/home/lab333/dalton/build_2018_atlas/basis/aug-cc-pCVDZ"

  Atomic type no.    3
  --------------------
  Nuclear charge:   8.00000
  Number of symmetry independent centers:    1
  Number of basis sets to read;    2
  Basis set file used for this atomic type with Z =   8 :
     "/home/lab333/dalton/build_2018_atlas/basis/aug-cc-pCVDZ"

  Atomic type no.    4
  --------------------
  Nuclear charge:   1.00000
  Number of symmetry independent centers:    3
  Number of basis sets to read;    2
  Basis set file used for this atomic type with Z =   1 :
     "/home/lab333/dalton/build_2018_atlas/basis/aug-cc-pCVDZ"


                         SYMGRP: Point group information
                         -------------------------------

@    Point group: C2v

@  * The irrep name for each symmetry:    1: A1     2: B1     3: B2     4: A2 

   * The point group was generated by:

      Reflection in the yz-plane
      Reflection in the xz-plane

   * Group multiplication table

        |  E   C2z  Oxz  Oyz
   -----+--------------------
     E  |  E   C2z  Oxz  Oyz
    C2z | C2z   E   Oyz  Oxz
    Oxz | Oxz  Oyz   E   C2z
    Oyz | Oyz  Oxz  C2z   E 

   * Character table

        |  E   C2z  Oxz  Oyz
   -----+--------------------
    A1  |   1    1    1    1
    B1  |   1   -1    1   -1
    B2  |   1   -1   -1    1
    A2  |   1    1   -1   -1

   * Direct product table

        | A1   B1   B2   A2 
   -----+--------------------
    A1  | A1   B1   B2   A2 
    B1  | B1   A1   A2   B2 
    B2  | B2   A2   A1   B1 
    A2  | A2   B2   B1   A1 


                                 Isotopic Masses
                                 ---------------

                           C          12.000000
                           C   _1     12.000000
                           C   _2     12.000000
                           C   _1     12.000000
                           C   _2     12.000000
                           C          12.000000
                           N          14.003074
                           O   _1     15.994915
                           O   _2     15.994915
                           H   _1      1.007825
                           H   _2      1.007825
                           H   _1      1.007825
                           H   _2      1.007825
                           H           1.007825

                       Total mass:   123.032029 amu
                       Natural abundance:  92.716 %

 Center-of-mass coordinates (a.u.):    0.000000    0.000000   -0.141222


  Atoms and basis sets
  --------------------

  Number of atom types :    4
  Total number of atoms:   14

  Basis set used is "aug-cc-pCVDZ" from the basis set library.

  label    atoms   charge   prim   cont     basis
  ----------------------------------------------------------------------
  C           6    6.0000    39    27      [11s6p2d|5s4p2d]                                   
  N           1    7.0000    39    27      [11s6p2d|5s4p2d]                                   
  O           2    8.0000    39    27      [11s6p2d|5s4p2d]                                   
  H           5    1.0000    11     9      [5s2p|3s2p]                                        
  ----------------------------------------------------------------------
  total:     14   64.0000   406   288
  ----------------------------------------------------------------------
  Spherical harmonic basis used.

  Threshold for neglecting AO integrals:  1.00D-12


  Symmetry Coordinates
  --------------------

  Number of coordinates in each symmetry:    14   14    9    5


   Interatomic separations (in Angstrom):
   --------------------------------------

            C           C   _1      C   _2      C   _1      C   _2      C     
            ------      ------      ------      ------      ------      ------
 C     :    0.000000
 C   _1:    1.391719    0.000000
 C   _2:    1.391719    2.438107    0.000000
 C   _1:    2.392065    1.391780    2.799956    0.000000
 C   _2:    2.392065    2.799956    1.391780    2.421019    0.000000
 C     :    2.757573    2.416230    2.416230    1.395542    1.395542    0.000000
 N     :    1.481505    2.474093    2.474093    3.745665    3.745665    4.239078
 O   _1:    2.616003    3.698845    3.272899    4.953559    4.646394    5.336565
 O   _2:    2.616003    3.272899    3.698845    4.646394    4.953559    5.336565
 H   _1:    2.143694    1.081451    3.407316    2.166922    3.881063    3.407904
 H   _2:    2.143694    3.407316    1.081451    3.881063    2.166922    3.407904
 H   _1:    3.376890    2.145360    3.883675    1.083722    3.403140    2.154719
 H   _2:    3.376890    3.883675    2.145360    3.403140    1.083722    2.154719
 H     :    3.841819    3.396703    3.396703    2.151500    2.151500    1.084247

            N           O   _1      O   _2      H   _1      H   _2      H   _1
            ------      ------      ------      ------      ------      ------
 N     :    0.000000
 O   _1:    1.224763    0.000000
 O   _2:    1.224763    1.217988    0.000000
 H   _1:    2.665523    3.819313    3.061304    0.000000
 H   _2:    2.665523    3.061304    3.819313    4.282121    0.000000
 H   _1:    4.616894    5.841024    5.374194    2.498398    4.964773    0.000000
 H   _2:    4.616894    5.374194    5.841024    4.964773    2.498398    4.298566
 H     :    5.323325    6.414922    6.414922    4.305675    4.305675    2.479943

            H   _2      H     
            ------      ------
 H   _2:    0.000000
 H     :    2.479943    0.000000


  Max    interatomic separation is    6.4149 Angstrom (   12.1224 Bohr)
  between atoms   14 and    8, "H     " and "O   _1".

  Min HX interatomic separation is    1.0815 Angstrom (    2.0436 Bohr)

  Min YX interatomic separation is    1.2180 Angstrom (    2.3017 Bohr)


  Bond distances (Angstrom):
  --------------------------

                  atom 1     atom 2       distance
                  ------     ------       --------
  bond distance:  C   _1     C            1.391719
  bond distance:  C   _2     C            1.391719
  bond distance:  C   _1     C   _1       1.391780
  bond distance:  C   _2     C   _2       1.391780
  bond distance:  C          C   _1       1.395542
  bond distance:  C          C   _2       1.395542
  bond distance:  N          C            1.481505
  bond distance:  O   _1     N            1.224763
  bond distance:  O   _2     N            1.224763
  bond distance:  O   _2     O   _1       1.217988
  bond distance:  H   _1     C   _1       1.081451
  bond distance:  H   _2     C   _2       1.081451
  bond distance:  H   _1     C   _1       1.083722
  bond distance:  H   _2     C   _2       1.083722
  bond distance:  H          C            1.084247


  Bond angles (degrees):
  ----------------------

                  atom 1     atom 2     atom 3         angle
                  ------     ------     ------         -----
  bond angle:     C   _1     C          C   _2       122.311
  bond angle:     C   _1     C          N            118.844
  bond angle:     C   _2     C          N            118.844
  bond angle:     C          C   _1     C   _1       118.493
  bond angle:     C          C   _1     H   _1       119.647
  bond angle:     C   _1     C   _1     H   _1       121.860
  bond angle:     C          C   _2     C   _2       118.493
  bond angle:     C          C   _2     H   _2       119.647
  bond angle:     C   _2     C   _2     H   _2       121.860
  bond angle:     C   _1     C   _1     C            120.192
  bond angle:     C   _1     C   _1     H   _1       119.623
  bond angle:     C          C   _1     H   _1       120.185
  bond angle:     C   _2     C   _2     C            120.192
  bond angle:     C   _2     C   _2     H   _2       119.623
  bond angle:     C          C   _2     H   _2       120.185
  bond angle:     C   _1     C          C   _2       120.319
  bond angle:     C   _1     C          H            119.841
  bond angle:     C   _2     C          H            119.841
  bond angle:     C          N          O   _1       150.183
  bond angle:     C          N          O   _2       150.183
  bond angle:     O   _1     N          O   _2        59.634
  bond angle:     N          O   _1     O   _2        60.183
  bond angle:     N          O   _2     O   _1        60.183




 Principal moments of inertia (u*A**2) and principal axes
 --------------------------------------------------------

   IA     101.249522          0.000000    0.000000    1.000000
   IB     470.307543          1.000000    0.000000    0.000000
   IC     571.557065          0.000000    1.000000    0.000000


 Rotational constants
 --------------------

@    The molecule is planar.

               A                   B                   C

           4991.4212           1074.5713            884.2144 MHz
            0.166496            0.035844            0.029494 cm-1


@  Nuclear repulsion energy :  414.423788928443 Hartree


  Symmetry Orbitals
  -----------------

  Number of orbitals in each symmetry:         115   91   48   34


  Symmetry  A1 ( 1)

    1     C        1s         1
    2     C        1s         2
    3     C        1s         3
    4     C        1s         4
    5     C        1s         5
    6     C        2pz        8
    7     C        2pz       11
    8     C        2pz       14
    9     C        2pz       17
   10     C        3d0       20
   11     C        3d2+      22
   12     C        3d0       25
   13     C        3d2+      27
   14     C        1s        28 +   29
   15     C        1s        30 +   31
   16     C        1s        32 +   33
   17     C        1s        34 +   35
   18     C        1s        36 +   37
   19     C        2px       38 -   39
   20     C        2pz       42 +   43
   21     C        2px       44 -   45
   22     C        2pz       48 +   49
   23     C        2px       50 -   51
   24     C        2pz       54 +   55
   25     C        2px       56 -   57
   26     C        2pz       60 +   61
   27     C        3d0       66 +   67
   28     C        3d1+      68 -   69
   29     C        3d2+      70 +   71
   30     C        3d0       76 +   77
   31     C        3d1+      78 -   79
   32     C        3d2+      80 +   81
   33     C        1s        82 +   83
   34     C        1s        84 +   85
   35     C        1s        86 +   87
   36     C        1s        88 +   89
   37     C        1s        90 +   91
   38     C        2px       92 -   93
   39     C        2pz       96 +   97
   40     C        2px       98 -   99
   41     C        2pz      102 +  103
   42     C        2px      104 -  105
   43     C        2pz      108 +  109
   44     C        2px      110 -  111
   45     C        2pz      114 +  115
   46     C        3d0      120 +  121
   47     C        3d1+     122 -  123
   48     C        3d2+     124 +  125
   49     C        3d0      130 +  131
   50     C        3d1+     132 -  133
   51     C        3d2+     134 +  135
   52     C        1s       136
   53     C        1s       137
   54     C        1s       138
   55     C        1s       139
   56     C        1s       140
   57     C        2pz      143
   58     C        2pz      146
   59     C        2pz      149
   60     C        2pz      152
   61     C        3d0      155
   62     C        3d2+     157
   63     C        3d0      160
   64     C        3d2+     162
   65     N        1s       163
   66     N        1s       164
   67     N        1s       165
   68     N        1s       166
   69     N        1s       167
   70     N        2pz      170
   71     N        2pz      173
   72     N        2pz      176
   73     N        2pz      179
   74     N        3d0      182
   75     N        3d2+     184
   76     N        3d0      187
   77     N        3d2+     189
   78     O        1s       190 +  191
   79     O        1s       192 +  193
   80     O        1s       194 +  195
   81     O        1s       196 +  197
   82     O        1s       198 +  199
   83     O        2px      200 -  201
   84     O        2pz      204 +  205
   85     O        2px      206 -  207
   86     O        2pz      210 +  211
   87     O        2px      212 -  213
   88     O        2pz      216 +  217
   89     O        2px      218 -  219
   90     O        2pz      222 +  223
   91     O        3d0      228 +  229
   92     O        3d1+     230 -  231
   93     O        3d2+     232 +  233
   94     O        3d0      238 +  239
   95     O        3d1+     240 -  241
   96     O        3d2+     242 +  243
   97     H        1s       244 +  245
   98     H        1s       246 +  247
   99     H        1s       248 +  249
  100     H        2px      250 -  251
  101     H        2pz      254 +  255
  102     H        2px      256 -  257
  103     H        2pz      260 +  261
  104     H        1s       262 +  263
  105     H        1s       264 +  265
  106     H        1s       266 +  267
  107     H        2px      268 -  269
  108     H        2pz      272 +  273
  109     H        2px      274 -  275
  110     H        2pz      278 +  279
  111     H        1s       280
  112     H        1s       281
  113     H        1s       282
  114     H        2pz      285
  115     H        2pz      288


  Symmetry  B1 ( 2)

  116     C        2px        6
  117     C        2px        9
  118     C        2px       12
  119     C        2px       15
  120     C        3d1+      21
  121     C        3d1+      26
  122     C        1s        28 -   29
  123     C        1s        30 -   31
  124     C        1s        32 -   33
  125     C        1s        34 -   35
  126     C        1s        36 -   37
  127     C        2px       38 +   39
  128     C        2pz       42 -   43
  129     C        2px       44 +   45
  130     C        2pz       48 -   49
  131     C        2px       50 +   51
  132     C        2pz       54 -   55
  133     C        2px       56 +   57
  134     C        2pz       60 -   61
  135     C        3d0       66 -   67
  136     C        3d1+      68 +   69
  137     C        3d2+      70 -   71
  138     C        3d0       76 -   77
  139     C        3d1+      78 +   79
  140     C        3d2+      80 -   81
  141     C        1s        82 -   83
  142     C        1s        84 -   85
  143     C        1s        86 -   87
  144     C        1s        88 -   89
  145     C        1s        90 -   91
  146     C        2px       92 +   93
  147     C        2pz       96 -   97
  148     C        2px       98 +   99
  149     C        2pz      102 -  103
  150     C        2px      104 +  105
  151     C        2pz      108 -  109
  152     C        2px      110 +  111
  153     C        2pz      114 -  115
  154     C        3d0      120 -  121
  155     C        3d1+     122 +  123
  156     C        3d2+     124 -  125
  157     C        3d0      130 -  131
  158     C        3d1+     132 +  133
  159     C        3d2+     134 -  135
  160     C        2px      141
  161     C        2px      144
  162     C        2px      147
  163     C        2px      150
  164     C        3d1+     156
  165     C        3d1+     161
  166     N        2px      168
  167     N        2px      171
  168     N        2px      174
  169     N        2px      177
  170     N        3d1+     183
  171     N        3d1+     188
  172     O        1s       190 -  191
  173     O        1s       192 -  193
  174     O        1s       194 -  195
  175     O        1s       196 -  197
  176     O        1s       198 -  199
  177     O        2px      200 +  201
  178     O        2pz      204 -  205
  179     O        2px      206 +  207
  180     O        2pz      210 -  211
  181     O        2px      212 +  213
  182     O        2pz      216 -  217
  183     O        2px      218 +  219
  184     O        2pz      222 -  223
  185     O        3d0      228 -  229
  186     O        3d1+     230 +  231
  187     O        3d2+     232 -  233
  188     O        3d0      238 -  239
  189     O        3d1+     240 +  241
  190     O        3d2+     242 -  243
  191     H        1s       244 -  245
  192     H        1s       246 -  247
  193     H        1s       248 -  249
  194     H        2px      250 +  251
  195     H        2pz      254 -  255
  196     H        2px      256 +  257
  197     H        2pz      260 -  261
  198     H        1s       262 -  263
  199     H        1s       264 -  265
  200     H        1s       266 -  267
  201     H        2px      268 +  269
  202     H        2pz      272 -  273
  203     H        2px      274 +  275
  204     H        2pz      278 -  279
  205     H        2px      283
  206     H        2px      286


  Symmetry  B2 ( 3)

  207     C        2py        7
  208     C        2py       10
  209     C        2py       13
  210     C        2py       16
  211     C        3d1-      19
  212     C        3d1-      24
  213     C        2py       40 +   41
  214     C        2py       46 +   47
  215     C        2py       52 +   53
  216     C        2py       58 +   59
  217     C        3d2-      62 -   63
  218     C        3d1-      64 +   65
  219     C        3d2-      72 -   73
  220     C        3d1-      74 +   75
  221     C        2py       94 +   95
  222     C        2py      100 +  101
  223     C        2py      106 +  107
  224     C        2py      112 +  113
  225     C        3d2-     116 -  117
  226     C        3d1-     118 +  119
  227     C        3d2-     126 -  127
  228     C        3d1-     128 +  129
  229     C        2py      142
  230     C        2py      145
  231     C        2py      148
  232     C        2py      151
  233     C        3d1-     154
  234     C        3d1-     159
  235     N        2py      169
  236     N        2py      172
  237     N        2py      175
  238     N        2py      178
  239     N        3d1-     181
  240     N        3d1-     186
  241     O        2py      202 +  203
  242     O        2py      208 +  209
  243     O        2py      214 +  215
  244     O        2py      220 +  221
  245     O        3d2-     224 -  225
  246     O        3d1-     226 +  227
  247     O        3d2-     234 -  235
  248     O        3d1-     236 +  237
  249     H        2py      252 +  253
  250     H        2py      258 +  259
  251     H        2py      270 +  271
  252     H        2py      276 +  277
  253     H        2py      284
  254     H        2py      287


  Symmetry  A2 ( 4)

  255     C        3d2-      18
  256     C        3d2-      23
  257     C        2py       40 -   41
  258     C        2py       46 -   47
  259     C        2py       52 -   53
  260     C        2py       58 -   59
  261     C        3d2-      62 +   63
  262     C        3d1-      64 -   65
  263     C        3d2-      72 +   73
  264     C        3d1-      74 -   75
  265     C        2py       94 -   95
  266     C        2py      100 -  101
  267     C        2py      106 -  107
  268     C        2py      112 -  113
  269     C        3d2-     116 +  117
  270     C        3d1-     118 -  119
  271     C        3d2-     126 +  127
  272     C        3d1-     128 -  129
  273     C        3d2-     153
  274     C        3d2-     158
  275     N        3d2-     180
  276     N        3d2-     185
  277     O        2py      202 -  203
  278     O        2py      208 -  209
  279     O        2py      214 -  215
  280     O        2py      220 -  221
  281     O        3d2-     224 +  225
  282     O        3d1-     226 -  227
  283     O        3d2-     234 +  235
  284     O        3d1-     236 -  237
  285     H        2py      252 -  253
  286     H        2py      258 -  259
  287     H        2py      270 -  271
  288     H        2py      276 -  277

  Symmetries of electric field:  B1 (2)  B2 (3)  A1 (1)

  Symmetries of magnetic field:  B2 (3)  B1 (2)  A2 (4)


                     .---------------------------------------.
                     | Starting in Integral Section (HERMIT) |
                     `---------------------------------------'



 ***************************************************************************************
 ****************** Output from **INTEGRALS input processing (HERMIT) ******************
 ***************************************************************************************


 - Using defaults, no **INTEGRALS input found

 Default print level:        1

 Calculation of one-electron Hamiltonian integrals.

 Center of mass  (bohr):      0.000000000000      0.000000000000     -0.141222092998
 Operator center (bohr):      0.000000000000      0.000000000000      0.000000000000
 Gauge origin    (bohr):      0.000000000000      0.000000000000      0.000000000000
 Dipole origin   (bohr):      0.000000000000      0.000000000000      0.000000000000


     ************************************************************************
     ************************** Output from HERINT **************************
     ************************************************************************



                      Nuclear contribution to dipole moments
                      --------------------------------------

                 au               Debye          C m (/(10**-30)

      z    -17.47624637       -44.42018468      -148.16978712


  Time used in GABGEN     is       0.11 seconds
  Total CPU  time used in HERMIT:   0.41 seconds
  Total wall time used in HERMIT:   0.42 seconds


                        .----------------------------------.
                        | End of Integral Section (HERMIT) |
                        `----------------------------------'



                   .--------------------------------------------.
                   | Starting in Wave Function Section (SIRIUS) |
                   `--------------------------------------------'


 *** Output from Huckel module :

     Using EWMO model:          F
     Using EHT  model:          T
     Number of Huckel orbitals each symmetry:   24   17    6    3

 Huckel EHT eigenvalues for symmetry :  1
          -20.719592     -15.706194     -11.414845     -11.394407     -11.376677
          -11.362578      -1.923621      -1.577192      -1.265968      -1.003651
           -0.831743      -0.733049      -0.639829      -0.621887      -0.539515
           -0.438236      -0.310543      -0.237726      -0.220107      -0.213424
           -0.205737      -0.178517      -0.166794      -0.160392

 Huckel EHT eigenvalues for symmetry :  2
          -20.699416     -11.396450     -11.377841      -1.243249      -1.156452
           -0.882236      -0.595728      -0.533982      -0.484883      -0.417011
           -0.379463      -0.330055      -0.213847      -0.202815      -0.176269
           -0.165469      -0.163311

 Huckel EHT eigenvalues for symmetry :  3
           -0.835835      -0.696900      -0.484737      -0.391526      -0.281565
           -0.236524

 Huckel EHT eigenvalues for symmetry :  4
           -0.505930      -0.460528      -0.288955

 **********************************************************************
 *SIRIUS* a direct, restricted step, second order MCSCF program       *
 **********************************************************************

 
     Date and time (Linux)  : Sat Jan 11 22:31:20 2020
     Host name              : Lab2-333-NPs                            

 Title lines from ".mol" input file:
      nitrobenzene                                                           
      Generated by the Dalton Input File Plugin for Avogadro                 

 Print level on unit LUPRI =   2 is   0
 Print level on unit LUW4  =   2 is   5

@    MC-SCF optimization.

@    Multi-configurational response calculation.
@              Type: complete active space calculation (CAS).

@    This is a combination run starting with
@              a restricted, closed shell Hartree-Fock calculation
@              an MP2 calculation

 Fock matrices are calculated directly without use of integrals on disk.

 Initial molecular orbitals are obtained according to
 ".MOSTART EHT   " input option

     Wave function specification
     ============================
@    Wave function type        --- MC-SCF ---
@    Number of closed shell electrons          54
@    Number of electrons in active shells      10
@    Total charge of the molecule               0

@    Spin multiplicity and 2 M_S                1         0
@    Total number of symmetries                 4 (point group: C2v)
@    Reference state symmetry                   1 (irrep name : A1 )

     Orbital specifications
     ======================
@    Abelian symmetry species          All |    1    2    3    4
@                                          |  A1   B1   B2   A2 
                                       --- |  ---  ---  ---  ---
@    Inactive orbitals                  27 |   15   10    2    0
@    Active orbitals                     7 |    1    1    2    3
@    Secondary orbitals                254 |   99   80   44   31
@    Total number of orbitals          288 |  115   91   48   34
@    Number of basis functions         288 |  115   91   48   34

      ** Automatic occupation of RHF orbitals **

      -- Initial occupation of symmetries is determined from extended Huckel guess.           
      -- Initial occupation of symmetries is :
@    Occupied SCF orbitals              32 |   16   10    4    2

     Optimization information
     ========================
@    Number of determinants                 115
@    Number of orbital rotations           2762
     ------------------------------------------
@    Total number of variables             2877

     Maximum number of macro iterations      25
     Maximum number of micro iterations     600
     Threshold for MCSCF gradient      1.00D-05
     Number of initial trial vectors          1
     Number of initial CI iterations          3
     Number of simultaneous trial vectors     1

@    This calculation converges to the lowest state for the specified symmetry and spin species.

     Maximum number of NEO/NR iterations  24

    INFORMATION: Switched to "new" integral transformation (from 1988 ;-) )
    because more than 255 basis functions.


 ***********************************************
 ***** DIIS acceleration of SCF iterations *****
 ***********************************************

 C1-DIIS algorithm; max error vectors =    8

 Automatic occupation of symmetries with  64 electrons.

 Iter     Total energy    Error norm  Delta(E)    SCF occupation
 -----------------------------------------------------------------------------
   1  Screening settings (-IFTHRS, JTDIIS, DIFDEN, times)   -8    1    T  2.60D+01  2.60D+01
@  1  -432.286717245       6.08D+00  -4.32D+02    16  10   4   2
      Virial theorem: -V/T =      1.999934
@    MULPOP   C       0.45; C   _1  0.10; C   _2  0.10; C   _1  0.26; C   _2  0.26; C       0.19; N       0.12; O   _1 -0.28; O   _2 -0.28; H   _1 -0.19; 
@             H   _2 -0.19; H   _1 -0.18; H   _2 -0.18; H      -0.18; 
   1  Level shift: doubly occupied orbital energies shifted by -2.00D-01
 -----------------------------------------------------------------------------
   2  Screening settings (-IFTHRS, JTDIIS, DIFDEN, times)   -8    2    T  2.61D+01  2.61D+01
@  2  -433.829972057       1.41D+00  -1.54D+00    16  10   4   2
      Virial theorem: -V/T =      1.994904
@    MULPOP   C       1.51; C   _1  0.11; C   _2  0.11; C   _1  0.39; C   _2  0.39; C       0.37; N       0.42; O   _1 -0.58; O   _2 -0.58; H   _1 -0.45; 
@             H   _2 -0.45; H   _1 -0.41; H   _2 -0.41; H      -0.42; 
   2  Level shift: doubly occupied orbital energies shifted by -5.00D-02
 -----------------------------------------------------------------------------
   3  Screening settings (-IFTHRS, JTDIIS, DIFDEN, times)   -8    3    T  2.59D+01  2.60D+01
@  3  -433.941932461       4.34D-01  -1.12D-01    16  10   4   2
      Virial theorem: -V/T =      1.999625
@    MULPOP   C       1.95; C   _1  0.01; C   _2  0.01; C   _1  0.55; C   _2  0.55; C       0.33; N       0.35; O   _1 -0.67; O   _2 -0.67; H   _1 -0.51; 
@             H   _2 -0.51; H   _1 -0.46; H   _2 -0.46; H      -0.47; 
   3  Level shift: doubly occupied orbital energies shifted by -2.50D-02
 -----------------------------------------------------------------------------
   4  Screening settings (-IFTHRS, JTDIIS, DIFDEN, times)   -8    4    T  2.59D+01  2.59D+01
@  4  -433.954628744       1.46D-01  -1.27D-02    16  10   4   2
      Virial theorem: -V/T =      1.998942
@    MULPOP   C       1.97; C   _1 -0.03; C   _2 -0.03; C   _1  0.57; C   _2  0.57; C       0.33; N       0.28; O   _1 -0.66; O   _2 -0.66; H   _1 -0.50; 
@             H   _2 -0.50; H   _1 -0.45; H   _2 -0.45; H      -0.47; 
   4  Level shift: doubly occupied orbital energies shifted by -1.25D-02
 -----------------------------------------------------------------------------
   5  Screening settings (-IFTHRS, JTDIIS, DIFDEN, times)  -10    5    F  2.64D+01  2.64D+01
@  5  -433.956017355       4.82D-02  -1.39D-03    16  10   4   2
      Virial theorem: -V/T =      1.998626
@    MULPOP   C       1.99; C   _1 -0.04; C   _2 -0.04; C   _1  0.57; C   _2  0.57; C       0.31; N       0.28; O   _1 -0.66; O   _2 -0.66; H   _1 -0.49; 
@             H   _2 -0.49; H   _1 -0.44; H   _2 -0.44; H      -0.46; 
 -----------------------------------------------------------------------------
   6  Screening settings (-IFTHRS, JTDIIS, DIFDEN, times)  -10    6    T  2.61D+01  2.61D+01
@  6  -433.956197099       1.11D-02  -1.80D-04    16  10   4   2
      Virial theorem: -V/T =      1.998741
@    MULPOP   C       2.00; C   _1 -0.04; C   _2 -0.04; C   _1  0.57; C   _2  0.57; C       0.32; N       0.28; O   _1 -0.66; O   _2 -0.66; H   _1 -0.49; 
@             H   _2 -0.49; H   _1 -0.44; H   _2 -0.44; H      -0.46; 
 -----------------------------------------------------------------------------
   7  Screening settings (-IFTHRS, JTDIIS, DIFDEN, times)  -13    7    F  2.67D+01  2.67D+01
@  7  -433.956211079       3.58D-03  -1.40D-05    16  10   4   2
      Virial theorem: -V/T =      1.998736
@    MULPOP   C       2.00; C   _1 -0.04; C   _2 -0.04; C   _1  0.57; C   _2  0.57; C       0.32; N       0.27; O   _1 -0.66; O   _2 -0.66; H   _1 -0.49; 
@             H   _2 -0.49; H   _1 -0.44; H   _2 -0.44; H      -0.46; 
 -----------------------------------------------------------------------------
   8  Screening settings (-IFTHRS, JTDIIS, DIFDEN, times)  -13    8    T  2.65D+01  2.65D+01
@  8  -433.956213042       1.61D-03  -1.96D-06    16  10   4   2
      Virial theorem: -V/T =      1.998731
@    MULPOP   C       2.00; C   _1 -0.04; C   _2 -0.04; C   _1  0.57; C   _2  0.57; C       0.32; N       0.27; O   _1 -0.66; O   _2 -0.66; H   _1 -0.49; 
@             H   _2 -0.49; H   _1 -0.44; H   _2 -0.44; H      -0.46; 
 -----------------------------------------------------------------------------
   9  Screening settings (-IFTHRS, JTDIIS, DIFDEN, times)  -13    9    T  2.63D+01  2.64D+01
@  9  -433.956213590       6.04D-04  -5.48D-07    16  10   4   2
      Virial theorem: -V/T =      1.998733
@    MULPOP   C       2.00; C   _1 -0.04; C   _2 -0.04; C   _1  0.57; C   _2  0.57; C       0.32; N       0.27; O   _1 -0.66; O   _2 -0.66; H   _1 -0.49; 
@             H   _2 -0.49; H   _1 -0.44; H   _2 -0.44; H      -0.46; 
 -----------------------------------------------------------------------------
  10  Screening settings (-IFTHRS, JTDIIS, DIFDEN, times)  -13   10    T  2.63D+01  2.63D+01
@ 10  -433.956213725       2.67D-04  -1.34D-07    16  10   4   2
      Virial theorem: -V/T =      1.998734
@    MULPOP   C       2.00; C   _1 -0.04; C   _2 -0.04; C   _1  0.57; C   _2  0.57; C       0.32; N       0.27; O   _1 -0.66; O   _2 -0.66; H   _1 -0.49; 
@             H   _2 -0.49; H   _1 -0.44; H   _2 -0.44; H      -0.46; 
 -----------------------------------------------------------------------------
  11  Screening settings (-IFTHRS, JTDIIS, DIFDEN, times)  -13   11    T  2.63D+01  2.63D+01
@ 11  -433.956213748       1.23D-04  -2.28D-08    16  10   4   2
      Virial theorem: -V/T =      1.998733
@    MULPOP   C       2.00; C   _1 -0.04; C   _2 -0.04; C   _1  0.57; C   _2  0.57; C       0.32; N       0.27; O   _1 -0.66; O   _2 -0.66; H   _1 -0.49; 
@             H   _2 -0.49; H   _1 -0.44; H   _2 -0.44; H      -0.46; 
 -----------------------------------------------------------------------------
  12  Screening settings (-IFTHRS, JTDIIS, DIFDEN, times)  -13   12    T  2.62D+01  2.62D+01
@ 12  -433.956213752       4.12D-05  -4.42D-09    16  10   4   2
      Virial theorem: -V/T =      1.998734
@    MULPOP   C       2.00; C   _1 -0.04; C   _2 -0.04; C   _1  0.57; C   _2  0.57; C       0.32; N       0.27; O   _1 -0.66; O   _2 -0.66; H   _1 -0.49; 
@             H   _2 -0.49; H   _1 -0.44; H   _2 -0.44; H      -0.46; 
 -----------------------------------------------------------------------------
  13  Screening settings (-IFTHRS, JTDIIS, DIFDEN, times)  -13   13    T  2.62D+01  2.62D+01
@ 13  -433.956213752       9.08D-06  -3.64D-10    16  10   4   2
      Virial theorem: -V/T =      1.998733
@    MULPOP   C       2.00; C   _1 -0.04; C   _2 -0.04; C   _1  0.57; C   _2  0.57; C       0.32; N       0.27; O   _1 -0.66; O   _2 -0.66; H   _1 -0.49; 
@             H   _2 -0.49; H   _1 -0.44; H   _2 -0.44; H      -0.46; 
 -----------------------------------------------------------------------------
  14  Screening settings (-IFTHRS, JTDIIS, DIFDEN, times)  -13   14    T  2.60D+01  2.60D+01
@ 14  -433.956213752       3.98D-06  -1.35D-11    16  10   4   2
      Virial theorem: -V/T =      1.998733
@    MULPOP   C       2.00; C   _1 -0.04; C   _2 -0.04; C   _1  0.57; C   _2  0.57; C       0.32; N       0.27; O   _1 -0.66; O   _2 -0.66; H   _1 -0.49; 
@             H   _2 -0.49; H   _1 -0.44; H   _2 -0.44; H      -0.46; 
 -----------------------------------------------------------------------------
  15  Screening settings (-IFTHRS, JTDIIS, DIFDEN, times)  -13   15    T  2.59D+01  2.59D+01
@ 15  -433.956213752       1.15D-06  -1.36D-12    16  10   4   2
      Virial theorem: -V/T =      1.998733
@    MULPOP   C       2.00; C   _1 -0.04; C   _2 -0.04; C   _1  0.57; C   _2  0.57; C       0.32; N       0.27; O   _1 -0.66; O   _2 -0.66; H   _1 -0.49; 
@             H   _2 -0.49; H   _1 -0.44; H   _2 -0.44; H      -0.46; 
 -----------------------------------------------------------------------------
  16  Screening settings (-IFTHRS, JTDIIS, DIFDEN, times)  -13   16    T  2.59D+01  2.59D+01
@ 16  -433.956213752       5.97D-07   1.36D-12    16  10   4   2

@ *** DIIS converged in  16 iterations !
@     Converged SCF energy, gradient:   -433.956213752487    5.97D-07
    - total time used in SIRFCK :              0.00 seconds

 --- Writing SIRIFC interface file

 CPU and wall time for SCF :     419.516     419.671


 ----- Output from SIRIUS MP2 module -----

 Reference: H.J.Aa.Jensen, P.Jorgensen, H.Agren, and J.Olsen,
            J. Chem. Phys. 88, 3834 (1988); 89, 5354 (1988)

 Checking that the closed shell orbitals are canonical Hartree-Fock orbitals

    Number of electrons  :   64
    Closed shell orbitals:   16   10    4    2

 Generating Fock matrix

 Hartree-Fock electronic energy:        -848.380002680934
 Hartree-Fock total      energy:        -433.956213752491

 Hartree-Fock orbital energies, symmetry 1 ( A1 ),   16 occupied SCF orbitals

       -20.69038345   -15.67499838   -11.34939326   -11.26452203   -11.25779489
       -11.24595136    -1.87821149    -1.20067673    -1.12023218    -1.01149919
        -0.86858441    -0.78216605    -0.71419469    -0.68401226    -0.62755186
        -0.53162096     0.03310368     0.04548541     0.06348652     0.10805273
         0.12419137     0.14134648     0.15543304     0.15741168     0.17026806
         0.18373938     0.20396812     0.26154374     0.26800672     0.29142097
         0.32156364     0.33523970     0.34506237     0.35996467     0.36516545
         0.39210825     0.41012322     0.42462964     0.45572022     0.47833503
         0.51265251     0.57123821     0.57560846     0.61902791     0.62488780
         0.66822639     0.67548943     0.69138716     0.71897806     0.76068104
         0.78797109     0.84869168     0.90322215     0.91041035     0.95806071
         0.99374030     1.01991862     1.06692976     1.08585996     1.10289312
         1.19376172     1.29345272     1.33586836     1.41183818     1.49494003
         1.53926528     1.54627658     1.58964955     1.60415243     1.63166942
         1.71378948     1.73384591     1.76807642     1.79728110     1.87022613
         1.96004743     1.99330534     2.03381672     2.03839583     2.21134466
         2.23694004     2.30060029     2.40227698     2.40978981     2.44115548
         2.51861504     2.58331745     2.68609922     2.75043409     2.83932953
         2.91364475     2.96555056     3.05504032     3.16263359     3.23802037
         3.36380839     3.51067415     3.72433660     3.95871707     4.18255615
        19.82166998    20.33059265    20.47216211    20.64052111    23.37057686
        23.43901505    23.48768109    23.81168617    23.91154602    24.13006052
        27.35983775    31.71108162    35.80289066    39.78504086    40.08783389

 Hartree-Fock orbital energies, symmetry 2 ( B1 ),   10 occupied SCF orbitals

       -20.68971992   -11.26449918   -11.25780892    -1.20514831    -1.03948350
        -0.85390346    -0.66367511    -0.61627363    -0.60797479    -0.51841549
         0.03875608     0.05706149     0.13300184     0.13708299     0.15117073
         0.16066201     0.18079506     0.20766922     0.25749552     0.29363275
         0.30417073     0.31093241     0.33238620     0.35551685     0.37264697
         0.39244898     0.41310693     0.43296978     0.47740345     0.55283205
         0.58106056     0.58350935     0.64476851     0.65976690     0.68455743
         0.70368739     0.76264469     0.77836276     0.83383405     0.85262007
         0.88350491     0.89593118     1.03455295     1.17033386     1.23352737
         1.32409195     1.34654489     1.37470940     1.49039834     1.49919002
         1.50984978     1.56828037     1.60751679     1.65151920     1.72166895
         1.76901603     1.78656620     1.82898768     1.87214343     1.93207936
         2.05557441     2.14459702     2.17523723     2.31748301     2.33307512
         2.39086904     2.45653593     2.50156568     2.58370035     2.73182903
         2.90973123     2.94683982     3.16074058     3.34216523     3.36230705
         3.42963897     3.90652531     4.24195564     4.56321967    20.29663496
        20.47987480    22.88109926    23.33142444    23.39579269    23.96132679
        24.13376347    24.32070895    31.33170193    35.68402294    39.90476684
        39.93328829

 Hartree-Fock orbital energies, symmetry 3 ( B2 ),    4 occupied SCF orbitals

        -0.86064296    -0.54054771    -0.42553194    -0.29773012     0.10483621
         0.11987690     0.13887658     0.18531916     0.19073700     0.23493643
         0.29990336     0.34048314     0.39193827     0.46760380     0.54716680
         0.59962339     0.67196893     0.72030821     0.79560950     0.87731176
         0.90699464     0.93256034     0.95218416     1.04411947     1.09288913
         1.15164689     1.17912706     1.48116294     1.52574529     1.63010186
         1.67933814     1.71783285     1.84482431     1.93770467     2.07524244
         2.09826169     2.17890742     2.30938164     2.57492469     2.69781140
         3.23335077     3.83466875    22.56513324    22.71438179    22.84415190
        23.04206474    30.74785466    39.44244715

 Hartree-Fock orbital energies, symmetry 4 ( A2 ),    2 occupied SCF orbitals

        -0.46848304    -0.35884057     0.09390278     0.13701780     0.19091588
         0.28144328     0.41857804     0.49474289     0.55114456     0.65854642
         0.74519426     0.88933533     0.90982762     0.94810422     1.04185024
         1.08111839     1.23050399     1.26808978     1.44353007     1.57712220
         1.69209313     1.70268198     1.88072807     1.90586806     2.11583188
         2.19196685     2.36144916     2.53643688     2.62858284     3.80993892
         4.00869252    22.70932082    22.87858223    39.38170111

    E(LUMO) :     0.03310368   (in symmetry 1)
  - E(HOMO) :    -0.29773012   (in symmetry 3)
  --------------------------
    gap     :     0.33083380

---> (Re)generating AOTWOINT


     ************************************************************************
     ************************** Output from HERINT **************************
     ************************************************************************


 Threshold for neglecting two-electron integrals:  1.00D-12
 HERMIT - Number of two-electron integrals written:   198998897 ( 23.0% )
 HERMIT - Megabytes written:                           3037.749

  Time used in TWOINT     is      36.55 seconds

 2-el. integral transformation level 5: Total CPU and WALL times (sec)     386.453     388.726

 MP2 move   0.915668 electrons to unoccupied HF orbitals


@   Hartree-Fock total energy   :          -433.9562137525
@   + MP2 contribution          :            -1.6728420283
@   = MP2 second order energy   :          -435.6290557808

 Natural orbital occupation numbers, symmetry 1 (irrep A1 )
 Sum =    31.97512679; RHF =    32.00000000; Difference =    -0.02487321

         1.99928773     1.99906125     1.99876107     1.99875746     1.99875197
         1.99874835     1.98888816     1.98420202     1.97976470     1.97428139
         1.96969350     1.96628403     1.96329467     1.95789148     1.95287335
         1.94516646     0.03797838     0.02602985     0.02428052     0.02282076
         0.01901594     0.01744121     0.01663831     0.01360218     0.01340917
         0.01229374     0.00999129     0.00893729     0.00829701     0.00782812
         0.00682940     0.00645708     0.00467957     0.00437599     0.00333938
         0.00298589     0.00288736     0.00265953     0.00236426     0.00206720
         0.00191662     0.00169519     0.00152706     0.00129784     0.00127734
         0.00117055     0.00106923     0.00096229     0.00073710     0.00065729
         0.00061819     0.00051191     0.00048898     0.00044676     0.00042479
         0.00041467     0.00039873     0.00037490     0.00035598     0.00034258
         0.00033471     0.00031939     0.00031622     0.00030455     0.00028167
         0.00026122     0.00023331     0.00022570     0.00021877     0.00019837
         0.00019342     0.00018401     0.00017699     0.00017501     0.00016779
         0.00016059     0.00015276     0.00014453     0.00013949     0.00013652
         0.00013307     0.00012853     0.00011739     0.00010505     0.00010169
         0.00009355     0.00007879     0.00006601     0.00005911     0.00005249
         0.00004571     0.00003647     0.00003401     0.00002646     0.00002103
         0.00001716     0.00001406     0.00001260     0.00001084     0.00000972
         0.00000931     0.00000756     0.00000685     0.00000415     0.00000241
         0.00000127     0.00000104     0.00000074     0.00000061     0.00000032
         0.00000018     0.00000009    -0.00000008    -0.00000052    -0.00000090

 Natural orbital occupation numbers, symmetry 2 (irrep B1 )
 Sum =    20.01083381; RHF =    20.00000000; Difference =     0.01083381

         1.99928408     1.99875753     1.99874967     1.98136850     1.97998045
         1.97254585     1.96081153     1.95557275     1.95424381     1.94796190
         0.04698262     0.03305006     0.02498943     0.02323633     0.01704157
         0.01641936     0.01573864     0.01183219     0.00956174     0.00910635
         0.00804808     0.00557097     0.00533260     0.00350334     0.00322108
         0.00305580     0.00251022     0.00217278     0.00216112     0.00167024
         0.00162788     0.00151158     0.00135514     0.00131173     0.00105362
         0.00098805     0.00067972     0.00064361     0.00054307     0.00045823
         0.00042525     0.00040058     0.00037169     0.00034499     0.00033624
         0.00029815     0.00029088     0.00028000     0.00025002     0.00021548
         0.00020894     0.00019754     0.00018888     0.00018310     0.00018016
         0.00017173     0.00016737     0.00016269     0.00015179     0.00014531
         0.00013993     0.00013363     0.00012450     0.00012030     0.00011043
         0.00010222     0.00009341     0.00007822     0.00005267     0.00004773
         0.00004051     0.00003125     0.00003058     0.00002371     0.00001635
         0.00001367     0.00001202     0.00001113     0.00000933     0.00000855
         0.00000446     0.00000303     0.00000141     0.00000132     0.00000058
         0.00000036     0.00000027     0.00000013    -0.00000009    -0.00000065
        -0.00000118

 Natural orbital occupation numbers, symmetry 3 (irrep B2 )
 Sum =     7.99315482; RHF =     8.00000000; Difference =    -0.00684518

         1.97773414     1.95907605     1.94529020     1.90751940     0.07091199
         0.03196623     0.01661520     0.01436436     0.01091089     0.01020281
         0.00897980     0.00714831     0.00689606     0.00534280     0.00403958
         0.00334030     0.00225756     0.00162760     0.00147388     0.00091352
         0.00089698     0.00070725     0.00055646     0.00048428     0.00047468
         0.00042981     0.00039058     0.00034806     0.00030479     0.00024537
         0.00021469     0.00020178     0.00019209     0.00018267     0.00017255
         0.00013790     0.00012633     0.00011832     0.00009931     0.00009357
         0.00007788     0.00005556     0.00002454     0.00001836     0.00001048
         0.00000752     0.00000175    -0.00002943

 Natural orbital occupation numbers, symmetry 4 (irrep A2 )
 Sum =     4.02088459; RHF =     4.00000000; Difference =     0.02088459

         1.96807554     1.91300397     0.06960578     0.01596636     0.01103646
         0.00971235     0.00731686     0.00580641     0.00437933     0.00374928
         0.00274834     0.00202549     0.00146641     0.00096646     0.00079622
         0.00074487     0.00062997     0.00053692     0.00041541     0.00037607
         0.00031289     0.00023826     0.00019778     0.00019046     0.00015641
         0.00013482     0.00012440     0.00009988     0.00007510     0.00005084
         0.00002226     0.00001898     0.00000838    -0.00010439

 Time used for MP2 natural orbitals :     416.406 CPU seconds,     418.666 wall seconds.

 CPU and wall time for MP2 :     416.406     418.666


        SIRIUS MCSCF optimization (SIROPT)
 ================================================


 Fock matrix screening setting for SIRCNO: IFTHRS =    9


 ----- Output from SIRIUS CI module (CICTL) -----




 2-el. integral transformation level 0: Total CPU and WALL times (sec)      93.438      93.461


 --- SIRCI.CIST1: plus combination of all degenerate
                 configurations is used as start vectors.


 (CIST1) 8 lowest diagonal elements:

 Element no. Config.no.    Active energy      Total energy

         1 :          1    -15.4240879585   -433.9444268231
         2 :          2    -15.1313848891   -433.6517237537
         3 :          6    -15.1313848891   -433.6517237537
         4 :          3    -14.8767322893   -433.3970711539
         5 :         11    -14.8767322893   -433.3970711539
         6 :          7    -14.8239430444   -433.3442819090
         7 :         44    -14.8041724255   -433.3245112901
         8 :         45    -14.6995411857   -433.2198800503


 Convergence threshold for CI optimization :     0.00000500



 *** Reached maximum number of CI iterations:    3
              1 CI roots are not converged.


@ Final CI energies and residuals in symmetry 1 (irrep A1 )
@    1     -433.968188719776094       3.06D-03

   --- OUTPUT FROM SIRCNO     Keyword = FD+NO 


 Occupations of CAS natural orbitals:

 Symmetry  1 ( irrep A1  in C2v )

   1.989388399

 Symmetry  2 ( irrep B1  in C2v )

   0.011273095

 Symmetry  3 ( irrep B2  in C2v )

   1.997155722   1.988601257

 Symmetry  4 ( irrep A2  in C2v )

   1.999339293   1.973097918   0.041144315


 --- MACRO ITERATION  1 ---
 --------------------------

 2-el. integral transformation level 3: Total CPU and WALL times (sec)      95.234      95.254

 Fock matrix screening setting for this macro iteration: 10^( -9)

 Total MCSCF energy       :          -433.968188717919247  (MACRO    1)

 - Nuclear repulsion      :           414.423788928442832
 - Inactive energy        :          -832.944127792729887
 - Active energy          :           -15.447849853632187

 Norm of total gradient   :             0.423151967289
 -    of CI gradient      :             0.006128842192
 -    of orbital gradient :             0.423107580545
      Virial theorem: -V/T =      1.987848
@    MULPOP   C       1.95; C   _1  0.11; C   _2  0.11; C   _1  0.48; C   _2  0.48; C       0.41; N       1.15; O   _1 -1.08; O   _2 -1.08; H   _1 -0.54; 
@             H   _2 -0.54; H   _1 -0.47; H   _2 -0.47; H      -0.49; 

 Residual norm when dim(red L) =   7
 NEO root     CSF        orbital          total
    1     0.00976245     0.00385607     0.01049642 converged

 (NEONEX) NEO vector is converged.

   --- OUTPUT FROM SIRCNO     Keyword = FD+NO 


 Occupations of CAS natural orbitals:

 Symmetry  1 ( irrep A1  in C2v )

   1.962968575

 Symmetry  2 ( irrep B1  in C2v )

   0.038168312

 Symmetry  3 ( irrep B2  in C2v )

   1.997197602   1.987769887

 Symmetry  4 ( irrep A2  in C2v )

   1.998861990   1.971098249   0.043935385


 --- MACRO ITERATION  2 ---
 --------------------------

 2-el. integral transformation level 3: Total CPU and WALL times (sec)      95.766      95.792

 Fock matrix screening setting for this macro iteration: 10^( -9)

 Total MCSCF energy       :          -433.994502485821215  (MACRO    2)

 - Nuclear repulsion      :           414.423788928442832
 - Inactive energy        :          -832.618741745940952
 - Active energy          :           -15.799549668323099

 Norm of total gradient   :             0.079779429573
 -    of CI gradient      :             0.067573888835
 -    of orbital gradient :             0.042409043030
      Virial theorem: -V/T =      1.986025
@    MULPOP   C       2.27; C   _1 -0.07; C   _2 -0.07; C   _1  0.58; C   _2  0.58; C       0.34; N       1.43; O   _1 -1.35; O   _2 -1.35; H   _1 -0.50; 
@             H   _2 -0.50; H   _1 -0.44; H   _2 -0.44; H      -0.45; 

 Residual norm when dim(red L) =   6
 NEO root     CSF        orbital          total
    1     0.01195440     0.00280195     0.01227838 converged

 (NEONEX) NEO vector is converged.

   --- OUTPUT FROM SIRCNO     Keyword = FD+NO 


 Occupations of CAS natural orbitals:

 Symmetry  1 ( irrep A1  in C2v )

   1.964882202

 Symmetry  2 ( irrep B1  in C2v )

   0.036225019

 Symmetry  3 ( irrep B2  in C2v )

   1.997290852   1.987991948

 Symmetry  4 ( irrep A2  in C2v )

   1.998891768   1.971657841   0.043060370


 --- MACRO ITERATION  3 ---
 --------------------------

 2-el. integral transformation level 3: Total CPU and WALL times (sec)      95.375      95.391

 Fock matrix screening setting for this macro iteration: 10^( -9)

 Total MCSCF energy       :          -433.999300910013915  (MACRO    3)

 - Nuclear repulsion      :           414.423788928442832
 - Inactive energy        :          -832.355875197049272
 - Active energy          :           -16.067214641407475

 Norm of total gradient   :             0.053109543936
 -    of CI gradient      :             0.051222367662
 -    of orbital gradient :             0.014031846212
      Virial theorem: -V/T =      1.984011
@    MULPOP   C       2.19; C   _1 -0.06; C   _2 -0.06; C   _1  0.57; C   _2  0.57; C       0.33; N       1.62; O   _1 -1.41; O   _2 -1.41; H   _1 -0.49; 
@             H   _2 -0.49; H   _1 -0.44; H   _2 -0.44; H      -0.45; 

 Residual norm when dim(red L) =  10
 NEO root     CSF        orbital          total
    1     0.00111388     0.00055960     0.00124655 converged

 (NEONEX) NEO vector is converged.

   --- OUTPUT FROM SIRCNO     Keyword = FD+NO 


 Occupations of CAS natural orbitals:

 Symmetry  1 ( irrep A1  in C2v )

   1.971686737

 Symmetry  2 ( irrep B1  in C2v )

   0.029647974

 Symmetry  3 ( irrep B2  in C2v )

   1.997537774   1.986926989

 Symmetry  4 ( irrep A2  in C2v )

   1.998664554   1.969341407   0.046194564


 --- MACRO ITERATION  4 ---
 --------------------------

 2-el. integral transformation level 3: Total CPU and WALL times (sec)      95.484      95.480

 Fock matrix screening setting for this macro iteration: 10^( -9)

 Total MCSCF energy       :          -433.999795253166042  (MACRO    4)

 - Nuclear repulsion      :           414.423788928442832
 - Inactive energy        :          -832.341945373916360
 - Active energy          :           -16.081638807692492

 Norm of total gradient   :             0.001480382853
 -    of CI gradient      :             0.001157135633
 -    of orbital gradient :             0.000923347454
      Virial theorem: -V/T =      1.983917
@    MULPOP   C       2.17; C   _1 -0.06; C   _2 -0.06; C   _1  0.56; C   _2  0.56; C       0.33; N       1.64; O   _1 -1.41; O   _2 -1.41; H   _1 -0.49; 
@             H   _2 -0.49; H   _1 -0.44; H   _2 -0.44; H      -0.45; 

 Residual norm when dim(red L) =  18
 NEO root     CSF        orbital          total
    1     0.00000305     0.00000471     0.00000561 converged

 (NEONEX) NEO vector is converged.

   --- OUTPUT FROM SIRCNO     Keyword = FD+NO 


 Occupations of CAS natural orbitals:

 Symmetry  1 ( irrep A1  in C2v )

   1.971654696

 Symmetry  2 ( irrep B1  in C2v )

   0.029668843

 Symmetry  3 ( irrep B2  in C2v )

   1.997577404   1.986908382

 Symmetry  4 ( irrep A2  in C2v )

   1.998675791   1.969317188   0.046197696


 --- MACRO ITERATION  5 ---
 --------------------------

 2-el. integral transformation level 3: Total CPU and WALL times (sec)      95.953      95.978

 Fock matrix screening setting for this macro iteration: 10^( -9)

 Total MCSCF energy       :          -433.999796720098402  (MACRO    5)

 - Nuclear repulsion      :           414.423788928442832
 - Inactive energy        :          -832.346091427352803
 - Active energy          :           -16.077494221188459

 Norm of total gradient   :             0.000012025982
 -    of CI gradient      :             0.000010855204
 -    of orbital gradient :             0.000005175788
      Virial theorem: -V/T =      1.983947
@    MULPOP   C       2.17; C   _1 -0.06; C   _2 -0.06; C   _1  0.56; C   _2  0.56; C       0.33; N       1.65; O   _1 -1.41; O   _2 -1.41; H   _1 -0.49; 
@             H   _2 -0.49; H   _1 -0.44; H   _2 -0.44; H      -0.45; 

 Residual norm when dim(red L) =   4
 NEO root     CSF        orbital          total
    1     0.00000213     0.00000188     0.00000284 converged

 (NEONEX) NEO vector is converged.

   --- OUTPUT FROM SIRCNO     Keyword = FD+NO 


 Occupations of CAS natural orbitals:

 Symmetry  1 ( irrep A1  in C2v )

   1.971655873

 Symmetry  2 ( irrep B1  in C2v )

   0.029667619

 Symmetry  3 ( irrep B2  in C2v )

   1.997577495   1.986908594

 Symmetry  4 ( irrep A2  in C2v )

   1.998675838   1.969317715   0.046196865


 --- MACRO ITERATION  6 ---
 --------------------------

 2-el. integral transformation level 3: Total CPU and WALL times (sec)      95.203      95.215

 Fock matrix screening setting for this macro iteration: 10^( -9)

 Total MCSCF energy       :          -433.999796720111533  (MACRO    6)

 - Nuclear repulsion      :           414.423788928442832
 - Inactive energy        :          -832.346095040948512
 - Active energy          :           -16.077490607605878

 Norm of total gradient   :             0.000002838525
 -    of CI gradient      :             0.000002130207
 -    of orbital gradient :             0.000001876018
      Virial theorem: -V/T =      1.983947
@    MULPOP   C       2.17; C   _1 -0.06; C   _2 -0.06; C   _1  0.56; C   _2  0.56; C       0.33; N       1.65; O   _1 -1.41; O   _2 -1.41; H   _1 -0.49; 
@             H   _2 -0.49; H   _1 -0.44; H   _2 -0.44; H      -0.45; 

 (SIRSTP) Energy difference;
 actual, predicted and ratio:  -0.000000000013131  -0.000000000024522    0.535468
 Close to convergence, ratio set to one.

 *** Optimization control: MCSCF converged ***
     Number of macro iterations used            6
     Number of micro iterations used           36
     Total number of CPU seconds used      2058.84

 CPU and wall time for MCSCF :    2058.844    2059.247


                     .----------------------------------------.
                     | --- SIRIUS OPTIMIZATION STATISTICS --- |
                     `----------------------------------------'


 
     Date and time (Linux)  : Sat Jan 11 23:19:37 2020
     Host name              : Lab2-333-NPs                            


  ITER ITMIC     EMCSCF           GRDNRM        RATIO      STPLNG
 ---------------------------------------------------------------------
    1    6   -433.968188717919   0.4231519673  0.000000   0.7192684918
    2    4   -433.994502485821   0.0797794296  0.748116   0.4807391854
    3    8   -433.999300910014   0.0531095439  0.853759   0.0603905400
    4   16   -433.999795253166   0.0014803829  1.013841   0.0079473416
    5    2   -433.999796720098   0.0000120260  1.000096   0.0000478871
    6    0   -433.999796720112   0.0000028385  1.000000   0.0000000000


  ITER  INDGCM  GCIMAX      GCINRM     INDGOM  GOBMAX      GOBNRM      GRDNRM
 ------------------------------------------------------------------------------
    1     25    0.003541    0.006129   2644    0.058567    0.423108    0.423152
    2     26   -0.066348    0.067574      7   -0.009911    0.042409    0.079779
    3     26   -0.049680    0.051222   1603   -0.003759    0.014032    0.053110
    4     25   -0.000706    0.001157   1603    0.000272    0.000923    0.001480
    5     26   -0.000010    0.000011   1581   -0.000001    0.000005    0.000012
    6      7    0.000001    0.000002   1581    0.000000    0.000002    0.000003


  ITER ITMIC NCLIN NOLIN   TIMMAC    TIMITR    TIMMIC    TIMLIN    TIMMIC/ITMIC
 ------------------------------------------------------------------------------

    1     6     1     5    323.88     95.23    200.12    171.56     33.35
    2     4     1     4    271.09     95.77    146.78    118.28     36.70
    3     8     4     5    378.17     95.38    254.30    225.78     31.79
    4    16     8     9    600.23     95.48    476.23    447.62     29.76
    5     2     1     2    213.55     95.95     88.95     60.42     44.48
    6     0     0     0    123.70     95.20      0.00      0.00


 ITER         EMY                 EACTIV              EMCSCF

    1   -832.944127792730    -15.447849853632   -433.968188717919
    2   -832.618741745941    -15.799549668323   -433.994502485821
    3   -832.355875197049    -16.067214641407   -433.999300910014
    4   -832.341945373916    -16.081638807692   -433.999795253166
    5   -832.346091427353    -16.077494221188   -433.999796720098
    6   -832.346095040949    -16.077490607606   -433.999796720112


 ITER         DEPRED              DEACT               RATIO

    1      0.000000000000      0.000000000000      0.000000000000
    2     -0.035173402336     -0.026313767902      0.748115512123
    3     -0.005620349451     -0.004798424193      0.853759047360
    4     -0.000487594150     -0.000494343152      1.013841433951
    5     -0.000001466791     -0.000001466932      1.000096383797
    6     -0.000000000025     -0.000000000013      1.000000000000


 ITER    BETA           GAMMA             STPLNG              RTRUST

    1      1.33114725  1.00000000      0.719268491808      0.700000000000
    2      0.20000000  1.00000000      0.480739185446      0.700000000000
    3      0.20000000  1.00000000      0.060390540026      0.700000000000
    4      0.20000000  1.00000000      0.007947341641      0.700000000000
    5      0.20000000  1.00000000      0.000047887125      0.700000000000
    6      0.00000000  0.00000000      0.000000000000      0.700000000000


 Reduced L root no.  1
 ITER         EVAL              EVEC(1)           EVEC(2)           EVEC(3)
 ----------------------------------------------------------------------------
    1   -0.065033789954    0.722306038240   -0.659707100321   -0.185322354952
    2   -0.000445509485    0.995409598956   -0.000784735698   -0.089385923477
    3   -0.000039001842    0.999927067633   -0.002572562346   -0.010164528313
    4   -0.000000117343    0.999998736798   -0.000078360426   -0.001515093291
    5   -0.000000000002    0.999999999954   -0.000000590661   -0.000009495450
    6    0.000000000000    0.000000000000    0.000000000000    0.000000000000


                       .-----------------------------------.
                       | --- Final results from SIRIUS --- |
                       `-----------------------------------'


@    Spin multiplicity:           1
@    Spatial symmetry:            1 ( irrep  A1  in C2v )
@    Total charge of molecule:    0
@    State number:                1

@    Final MCSCF energy:         -433.999796720112                 
@    Nuclear repulsion:           414.423788928443
@    Electronic energy:          -848.423585648554

@    Final gradient norm:           0.000002838525

 
     Date and time (Linux)  : Sat Jan 11 23:19:37 2020
     Host name              : Lab2-333-NPs                            

 Occupancies of natural orbitals
 -------------------------------

 Symmetry 1  ( A1 ) -- Total occupation in this symmetry is  31.971655873

   2.000000000   2.000000000   2.000000000   2.000000000   2.000000000
   2.000000000   2.000000000   2.000000000   2.000000000   2.000000000
   2.000000000   2.000000000   2.000000000   2.000000000   2.000000000
   1.971655873

 Symmetry 2  ( B1 ) -- Total occupation in this symmetry is  20.029667619

   2.000000000   2.000000000   2.000000000   2.000000000   2.000000000
   2.000000000   2.000000000   2.000000000   2.000000000   2.000000000
   0.029667619

 Symmetry 3  ( B2 ) -- Total occupation in this symmetry is   7.984486090

   2.000000000   2.000000000   1.997577495   1.986908594

 Symmetry 4  ( A2 ) -- Total occupation in this symmetry is   4.014190418

   1.998675838   1.969317715   0.046196865

File label for MO orbitals:  11Jan20   (CNOORB)

 (Only coefficients > 0.0100 are printed.)

 Molecular orbitals for symmetry species 1  (A1 )
 ------------------------------------------------

    Orbital         6        7        8        9       10       11       12
   1 C   :1s     0.0002  -0.0002  -0.0163   0.0110   0.0075  -0.0074  -0.0007
   2 C   :1s     0.0009   0.0201   0.4921  -0.3009  -0.2481   0.2382  -0.2167
   3 C   :1s    -0.0161  -0.0119   0.0077  -0.1292  -0.2220   0.4041   0.2550
   5 C   :1s    -0.0255  -0.0548  -0.6099  -0.1150   0.0954  -0.2099   0.0776
   6 C   :2pz   -0.0001  -0.0044  -0.0371  -0.1497   0.1848   0.1935   0.3656
   7 C   :2pz    0.0059  -0.2525   0.0017   0.1202   0.0662  -0.1926  -0.1994
   9 C   :2pz   -0.0006   0.1170   0.1025   0.1193   0.1450  -0.1530  -0.1320
  10 C   :3d0    0.0000  -0.0015   0.0089  -0.0151   0.0133   0.0205   0.0278
  11 C   :3d2+  -0.0001  -0.0003   0.0144  -0.0041  -0.0149   0.0009  -0.0109
  12 C   :3d0   -0.0025  -0.0867  -0.0750   0.0469   0.0156  -0.1452  -0.1491
  13 C   :3d2+   0.0011   0.0238   0.0539  -0.0179  -0.0266   0.0918   0.0781
  14 C   :1s    -0.0057  -0.0013  -0.0127  -0.0006   0.0082   0.0082  -0.0001
  15 C   :1s     0.0006  -0.0004   0.3432   0.0289  -0.2379  -0.2117   0.0213
[...]



 ---  SOLVING SETS OF LINEAR EQUATIONS FOR LINEAR RESPONSE PROPERTIES ---

 Operator symmetry = 4  ( A2 ); triplet =   F


 ** RSPCTL MICROITERATION NUMBER    1

       No.  Residual tot.,    conf., and orb.    Bnorm      Frequency 
      ----------------------------------------------------------------
         1    6.67678D+00  4.52D-01  6.66D+00  5.88D+01    0.00000D+00

 ** RSPCTL MICROITERATION NUMBER    2

       No.  Residual tot.,    conf., and orb.    Bnorm      Frequency 
      ----------------------------------------------------------------
         1    1.90186D+00  5.34D-01  1.83D+00  6.37D+01    0.00000D+00

 ** RSPCTL MICROITERATION NUMBER    3

       No.  Residual tot.,    conf., and orb.    Bnorm      Frequency 
      ----------------------------------------------------------------
         1    7.90759D-01  5.66D-01  5.52D-01  6.47D+01    0.00000D+00

 ** RSPCTL MICROITERATION NUMBER    4

       No.  Residual tot.,    conf., and orb.    Bnorm      Frequency 
      ----------------------------------------------------------------
         1    6.39389D-01  7.87D-02  6.35D-01  6.47D+01    0.00000D+00

 ** RSPCTL MICROITERATION NUMBER    5

       No.  Residual tot.,    conf., and orb.    Bnorm      Frequency 
      ----------------------------------------------------------------
         1    4.50781D-01  1.38D-01  4.29D-01  6.67D+01    0.00000D+00

 ** RSPCTL MICROITERATION NUMBER    6

       No.  Residual tot.,    conf., and orb.    Bnorm      Frequency 
      ----------------------------------------------------------------
         1    1.55280D+00  3.80D-01  1.51D+00  9.37D+01    0.00000D+00

 ** RSPCTL MICROITERATION NUMBER    7

 *** INFO, negative eigenvalues in reduced matrix. Symmetry  4,  triplet       F Dimension of reduced matrix =    16

 GP * SOLUTION vector at frequency     0.00000 a.u.
 after    8 linear transformations is      1.98118523D+03
 INERTIA (POS,ZER,NEG) of reduced matrix is   15    0    1
 Determinant of reduced matrix is -5.64 * 10 **-15.0

       No.  Residual tot.,    conf., and orb.    Bnorm      Frequency 
      ----------------------------------------------------------------
         1    8.74579D-01  2.46D-01  8.39D-01  9.04D+01    0.00000D+00

 ** RSPCTL MICROITERATION NUMBER    8

 *** INFO, negative eigenvalues in reduced matrix. Symmetry  4,  triplet       F Dimension of reduced matrix =    18

 GP * SOLUTION vector at frequency     0.00000 a.u.
 after    9 linear transformations is      1.98152330D+03
 INERTIA (POS,ZER,NEG) of reduced matrix is   17    0    1
 Determinant of reduced matrix is -4.17 * 10 **-17.0

       No.  Residual tot.,    conf., and orb.    Bnorm      Frequency 
      ----------------------------------------------------------------
         1    2.62658D-01  2.02D-01  1.68D-01  7.78D+01    0.00000D+00

 ** RSPCTL MICROITERATION NUMBER    9

 *** INFO, negative eigenvalues in reduced matrix. Symmetry  4,  triplet       F Dimension of reduced matrix =    20

 GP * SOLUTION vector at frequency     0.00000 a.u.
 after   10 linear transformations is      1.98156428D+03
 INERTIA (POS,ZER,NEG) of reduced matrix is   19    0    1
 Determinant of reduced matrix is -3.55 * 10 **-17.0

       No.  Residual tot.,    conf., and orb.    Bnorm      Frequency 
      ----------------------------------------------------------------
         1    2.02095D-01  4.36D-02  1.97D-01  7.68D+01    0.00000D+00

 ** RSPCTL MICROITERATION NUMBER   10

 *** INFO, negative eigenvalues in reduced matrix. Symmetry  4,  triplet       F Dimension of reduced matrix =    22

 GP * SOLUTION vector at frequency     0.00000 a.u.
 after   11 linear transformations is      1.98159295D+03
 INERTIA (POS,ZER,NEG) of reduced matrix is   21    0    1
 Determinant of reduced matrix is -2.97 * 10 **-19.0

       No.  Residual tot.,    conf., and orb.    Bnorm      Frequency 
      ----------------------------------------------------------------
         1    7.82858D-02  4.83D-02  6.16D-02  7.61D+01    0.00000D+00

 ** RSPCTL MICROITERATION NUMBER   11

 *** INFO, negative eigenvalues in reduced matrix. Symmetry  4,  triplet       F Dimension of reduced matrix =    24

 GP * SOLUTION vector at frequency     0.00000 a.u.
 after   12 linear transformations is      1.98159798D+03
 INERTIA (POS,ZER,NEG) of reduced matrix is   23    0    1
 Determinant of reduced matrix is -1.48 * 10 **-21.0

       No.  Residual tot.,    conf., and orb.    Bnorm      Frequency 
      ----------------------------------------------------------------
         1    6.34995D-02  4.83D-02  4.13D-02  7.60D+01    0.00000D+00

 *** THE REQUESTED    1 SOLUTION VECTORS CONVERGED

 Convergence of RSP solution vectors, threshold = 1.00D-03
 ---------------------------------------------------------------
 (dimension of paired reduced space:   24)
 RSP solution vector no.    1; norm of residual   8.35D-04

 *** RSPCTL MICROITERATIONS CONVERGED
    XDIPLEN     YDIPLEN      freq1     freq2                Norm
 ---------------------------------------------------------------
                          0.058400 -0.058400         76.02907174


 Perturbation symmetry.     KSYMOP:       1
 Perturbation spin symmetry.TRPLET:       F
 Orbital variables.         KZWOPT:    2762
 Configuration variables.   KZCONF:     115
 Total number of variables. KZVAR :    2877


 CRLRV2 -- linear response calc for sym:  1
 CRLRV2 -- operator label1: YDIPLEN 
 CRLRV2 -- operator label2: YDIPLEN 
 CRLRV2 -- freqr1 :   5.840000D-02
 CRLRV2 -- freqr2 :   5.840000D-02



 ---  SOLVING SETS OF LINEAR EQUATIONS FOR LINEAR RESPONSE PROPERTIES ---

 Operator symmetry = 1  ( A1 ); triplet =   F


 ** RSPCTL MICROITERATION NUMBER    1

       No.  Residual tot.,    conf., and orb.    Bnorm      Frequency 
      ----------------------------------------------------------------
         1    1.78956D+01  1.14D+00  1.79D+01  9.96D+01    1.16800D-01

 ** RSPCTL MICROITERATION NUMBER    2

       No.  Residual tot.,    conf., and orb.    Bnorm      Frequency 
      ----------------------------------------------------------------
         1    8.36411D+00  8.63D-01  8.32D+00  1.07D+02    1.16800D-01

 ** RSPCTL MICROITERATION NUMBER    3

       No.  Residual tot.,    conf., and orb.    Bnorm      Frequency 
      ----------------------------------------------------------------
         1    3.23633D+00  1.09D+00  3.05D+00  1.09D+02    1.16800D-01

 ** RSPCTL MICROITERATION NUMBER    4

       No.  Residual tot.,    conf., and orb.    Bnorm      Frequency 
      ----------------------------------------------------------------
         1    2.03155D+00  1.18D+00  1.65D+00  1.10D+02    1.16800D-01

 ** RSPCTL MICROITERATION NUMBER    5

       No.  Residual tot.,    conf., and orb.    Bnorm      Frequency 
      ----------------------------------------------------------------
         1    1.48241D+00  1.24D+00  8.15D-01  1.10D+02    1.16800D-01

 ** RSPCTL MICROITERATION NUMBER    6

       No.  Residual tot.,    conf., and orb.    Bnorm      Frequency 
      ----------------------------------------------------------------
         1    1.53486D+00  2.71D-01  1.51D+00  1.10D+02    1.16800D-01

 ** RSPCTL MICROITERATION NUMBER    7

       No.  Residual tot.,    conf., and orb.    Bnorm      Frequency 
      ----------------------------------------------------------------
         1    7.30532D-01  2.74D-01  6.77D-01  1.10D+02    1.16800D-01

 ** RSPCTL MICROITERATION NUMBER    8

       No.  Residual tot.,    conf., and orb.    Bnorm      Frequency 
      ----------------------------------------------------------------
         1    3.67912D-01  2.73D-01  2.46D-01  1.10D+02    1.16800D-01

 ** RSPCTL MICROITERATION NUMBER    9

       No.  Residual tot.,    conf., and orb.    Bnorm      Frequency 
      ----------------------------------------------------------------
         1    2.69713D-01  8.07D-02  2.57D-01  1.10D+02    1.16800D-01

 ** RSPCTL MICROITERATION NUMBER   10

       No.  Residual tot.,    conf., and orb.    Bnorm      Frequency 
      ----------------------------------------------------------------
         1    1.54946D-01  7.92D-02  1.33D-01  1.10D+02    1.16800D-01

 ** RSPCTL MICROITERATION NUMBER   11

       No.  Residual tot.,    conf., and orb.    Bnorm      Frequency 
      ----------------------------------------------------------------
         1    8.68627D-02  7.56D-02  4.28D-02  1.10D+02    1.16800D-01

 *** THE REQUESTED    1 SOLUTION VECTORS CONVERGED

 Convergence of RSP solution vectors, threshold = 1.00D-03
 ---------------------------------------------------------------
 (dimension of paired reduced space:   24)
 RSP solution vector no.    1; norm of residual   7.90D-04

 *** RSPCTL MICROITERATIONS CONVERGED
    YDIPLEN     YDIPLEN      freq1     freq2                Norm
 ---------------------------------------------------------------
                          0.058400  0.058400        109.95505782
  Time used in CRVEC2     is       2 hours  6 minutes 43 seconds


 ----- CALCULATING CONTRIBUTIONS TO SECOND HYPERPOLARIZABILITY -----


   Contribution                Term         Accumulated
 ------------------------------------------------------
 Na T[4] Nb Nc Nd    -8960.83668196      -8960.83668196
 Na T[3] Nx Nyz      12616.38998668       3655.55330472
 Na X[3] Ny Nz       21217.83086880      24873.38417351
 Nx A[3] Ny Nz        7072.61028960      31945.99446311
 Na X[2] Nyz        -36315.53930089      -4369.54483778
 Nx A[2] Nyz        -36002.19406738     -40371.73890516

@ Cubic response function value in a.u. for
@ A operator, symmetry, frequency:   ZDIPLEN    1 -0.058400
@ B operator, symmetry, frequency:   ZDIPLEN    1  0.058400
@ C operator, symmetry, frequency:   ZDIPLEN    1 -0.058400
@ D operator, symmetry, frequency:   ZDIPLEN    1  0.058400

@ << A; B, C, D >>  =      -40371.73890516



   Contribution                Term         Accumulated
 ------------------------------------------------------
 Na T[4] Nb Nc Nd     -712.15552227       -712.15552227
 Na T[3] Nx Nyz       4689.20524734       3977.04972508
 Na X[3] Ny Nz        4582.83364696       8559.88337203
 Nx A[3] Ny Nz         345.56727601       8905.45064804
 Na X[2] Nyz        -27662.90658153     -18757.45593348
 Nx A[2] Nyz         16773.57136893      -1983.88456455

@ Cubic response function value in a.u. for
@ A operator, symmetry, frequency:   XDIPLEN    2 -0.058400
@ B operator, symmetry, frequency:   XDIPLEN    2  0.058400
@ C operator, symmetry, frequency:   ZDIPLEN    1 -0.058400
@ D operator, symmetry, frequency:   ZDIPLEN    1  0.058400

@ << A; B, C, D >>  =       -1983.88456455



   Contribution                Term         Accumulated
 ------------------------------------------------------
 Na T[4] Nb Nc Nd     -540.63281880       -540.63281880
 Na T[3] Nx Nyz       1286.50377055        745.87095175
 Na X[3] Ny Nz         870.42564362       1616.29659536
 Nx A[3] Ny Nz         323.15852157       1939.45511693
 Na X[2] Nyz         -4508.47486140      -2569.01974447
 Nx A[2] Nyz         -6141.88762720      -8710.90737167

@ Cubic response function value in a.u. for
@ A operator, symmetry, frequency:   YDIPLEN    3 -0.058400
@ B operator, symmetry, frequency:   YDIPLEN    3  0.058400
@ C operator, symmetry, frequency:   ZDIPLEN    1 -0.058400
@ D operator, symmetry, frequency:   ZDIPLEN    1  0.058400

@ << A; B, C, D >>  =       -8710.90737167



   Contribution                Term         Accumulated
 ------------------------------------------------------
 Na T[4] Nb Nc Nd     -551.95522792       -551.95522792
 Na T[3] Nx Nyz       4394.20362299       3842.24839507
 Na X[3] Ny Nz        4042.85264986       7885.10104493
 Nx A[3] Ny Nz         -17.69232738       7867.40871754
 Na X[2] Nyz        -28812.19686983     -20944.78815228
 Nx A[2] Nyz         19570.81201064      -1373.97614164

@ Cubic response function value in a.u. for
@ A operator, symmetry, frequency:   XDIPLEN    2 -0.058400
@ B operator, symmetry, frequency:   ZDIPLEN    1  0.058400
@ C operator, symmetry, frequency:   XDIPLEN    2 -0.058400
@ D operator, symmetry, frequency:   ZDIPLEN    1  0.058400

@ << A; B, C, D >>  =       -1373.97614164



   Contribution                Term         Accumulated
 ------------------------------------------------------
 Na T[4] Nb Nc Nd     -470.78924797       -470.78924797
 Na T[3] Nx Nyz       1327.49577131        856.70652334
 Na X[3] Ny Nz         766.10740641       1622.81392975
 Nx A[3] Ny Nz         251.06911030       1873.88304005
 Na X[2] Nyz         -4494.92727027      -2621.04423022
 Nx A[2] Nyz         -5936.99590536      -8558.04013558

@ Cubic response function value in a.u. for
@ A operator, symmetry, frequency:   YDIPLEN    3 -0.058400
@ B operator, symmetry, frequency:   ZDIPLEN    1  0.058400
@ C operator, symmetry, frequency:   YDIPLEN    3 -0.058400
@ D operator, symmetry, frequency:   ZDIPLEN    1  0.058400

@ << A; B, C, D >>  =       -8558.04013558



   Contribution                Term         Accumulated
 ------------------------------------------------------
 Na T[4] Nb Nc Nd     -177.64412749       -177.64412749
 Na T[3] Nx Nyz      -9443.59472297      -9621.23885046
 Na X[3] Ny Nz        3797.75309254      -5823.48575793
 Nx A[3] Ny Nz        2631.22757485      -3192.25818308
 Na X[2] Nyz         26875.31513834      23683.05695526
 Nx A[2] Nyz        -25061.50131123      -1378.44435597

@ Cubic response function value in a.u. for
@ A operator, symmetry, frequency:   ZDIPLEN    1 -0.058400
@ B operator, symmetry, frequency:   XDIPLEN    2  0.058400
@ C operator, symmetry, frequency:   ZDIPLEN    1 -0.058400
@ D operator, symmetry, frequency:   XDIPLEN    2  0.058400

@ << A; B, C, D >>  =       -1378.44435597



   Contribution                Term         Accumulated
 ------------------------------------------------------
 Na T[4] Nb Nc Nd    -1914.79266675      -1914.79266675
 Na T[3] Nx Nyz      -7102.48043771      -9017.27310446
 Na X[3] Ny Nz       16731.62794708       7714.35484262
 Nx A[3] Ny Nz        5577.20931569      13291.56415832
 Na X[2] Nyz        -10076.81983451       3214.74432381
 Nx A[2] Nyz        -12880.38682485      -9665.64250104

@ Cubic response function value in a.u. for
@ A operator, symmetry, frequency:   XDIPLEN    2 -0.058400
@ B operator, symmetry, frequency:   XDIPLEN    2  0.058400
@ C operator, symmetry, frequency:   XDIPLEN    2 -0.058400
@ D operator, symmetry, frequency:   XDIPLEN    2  0.058400

@ << A; B, C, D >>  =       -9665.64250104



   Contribution                Term         Accumulated
 ------------------------------------------------------
 Na T[4] Nb Nc Nd     -266.47063560       -266.47063560
 Na T[3] Nx Nyz       1070.55945862        804.08882302
 Na X[3] Ny Nz         431.19841821       1235.28724123
 Nx A[3] Ny Nz          87.91999757       1323.20723880
 Na X[2] Nyz         -3146.99377925      -1823.78654045
 Nx A[2] Nyz         -4234.53415327      -6058.32069372

@ Cubic response function value in a.u. for
@ A operator, symmetry, frequency:   YDIPLEN    3 -0.058400
@ B operator, symmetry, frequency:   YDIPLEN    3  0.058400
@ C operator, symmetry, frequency:   XDIPLEN    2 -0.058400
@ D operator, symmetry, frequency:   XDIPLEN    2  0.058400

@ << A; B, C, D >>  =       -6058.32069372



   Contribution                Term         Accumulated
 ------------------------------------------------------
 Na T[4] Nb Nc Nd     -244.60953052       -244.60953052
 Na T[3] Nx Nyz       1132.56521924        887.95568872
 Na X[3] Ny Nz         380.18612001       1268.14180873
 Nx A[3] Ny Nz          57.61348826       1325.75529700
 Na X[2] Nyz         -3124.11471812      -1798.35942112
 Nx A[2] Nyz         -4098.25778950      -5896.61721062

@ Cubic response function value in a.u. for
@ A operator, symmetry, frequency:   YDIPLEN    3 -0.058400
@ B operator, symmetry, frequency:   XDIPLEN    2  0.058400
@ C operator, symmetry, frequency:   YDIPLEN    3 -0.058400
@ D operator, symmetry, frequency:   XDIPLEN    2  0.058400

@ << A; B, C, D >>  =       -5896.61721062



   Contribution                Term         Accumulated
 ------------------------------------------------------
 Na T[4] Nb Nc Nd     -429.70888390       -429.70888390
 Na T[3] Nx Nyz       1380.19412299        950.48523910
 Na X[3] Ny Nz         683.62376624       1634.10900533
 Nx A[3] Ny Nz         232.17461391       1866.28361924
 Na X[2] Nyz         -5861.05644996      -3994.77283072
 Nx A[2] Nyz         -4561.90010079      -8556.67293152

@ Cubic response function value in a.u. for
@ A operator, symmetry, frequency:   ZDIPLEN    1 -0.058400
@ B operator, symmetry, frequency:   YDIPLEN    3  0.058400
@ C operator, symmetry, frequency:   ZDIPLEN    1 -0.058400
@ D operator, symmetry, frequency:   YDIPLEN    3  0.058400

@ << A; B, C, D >>  =       -8556.67293152



   Contribution                Term         Accumulated
 ------------------------------------------------------
 Na T[4] Nb Nc Nd     -181.49869860       -181.49869860
 Na T[3] Nx Nyz       1095.40468547        913.90598686
 Na X[3] Ny Nz         171.15420278       1085.06018964
 Nx A[3] Ny Nz         126.16661933       1211.22680898
 Na X[2] Nyz         -4063.96899485      -2852.74218587
 Nx A[2] Nyz         -3044.30742386      -5897.04960973

@ Cubic response function value in a.u. for
@ A operator, symmetry, frequency:   XDIPLEN    2 -0.058400
@ B operator, symmetry, frequency:   YDIPLEN    3  0.058400
@ C operator, symmetry, frequency:   XDIPLEN    2 -0.058400
@ D operator, symmetry, frequency:   YDIPLEN    3  0.058400

@ << A; B, C, D >>  =       -5897.04960973



   Contribution                Term         Accumulated
 ------------------------------------------------------
 Na T[4] Nb Nc Nd     -460.71102108       -460.71102108
 Na T[3] Nx Nyz       2680.65899038       2219.94796930
 Na X[3] Ny Nz        1514.90525116       3734.85322046
 Nx A[3] Ny Nz         504.96841705       4239.82163751
 Na X[2] Nyz         -8268.02377284      -4028.20213533
 Nx A[2] Nyz         -8258.45411105     -12286.65624639

@ Cubic response function value in a.u. for
@ A operator, symmetry, frequency:   YDIPLEN    3 -0.058400
@ B operator, symmetry, frequency:   YDIPLEN    3  0.058400
@ C operator, symmetry, frequency:   YDIPLEN    3 -0.058400
@ D operator, symmetry, frequency:   YDIPLEN    3  0.058400

@ << A; B, C, D >>  =      -12286.65624639



  Summary of gamma values for a set of frequencies
 -------------------------------------------------

@ B-freq:  0.058400
@ C-freq: -0.058400
@ D-freq:  0.058400

@ gamma(X;X,X,X)       9665.6425
@ gamma(X;X,Y,Y)       6058.3207
@ gamma(X;Y,Y,X)       6058.3207
@ gamma(X;Y,X,Y)       5897.0496
@ gamma(X;X,Z,Z)       1983.8846
@ gamma(X;Z,Z,X)       1983.8846
@ gamma(X;Z,X,Z)       1373.9761
@ gamma(Y;Y,X,X)       6058.3207
@ gamma(Y;X,X,Y)       6058.3207
@ gamma(Y;X,Y,X)       5896.6172
@ gamma(Y;Y,Y,Y)      12286.6562
@ gamma(Y;Y,Z,Z)       8710.9074
@ gamma(Y;Z,Z,Y)       8710.9074
@ gamma(Y;Z,Y,Z)       8558.0401
@ gamma(Z;Z,X,X)       1983.8846
@ gamma(Z;X,X,Z)       1983.8846
@ gamma(Z;X,Z,X)       1378.4444
@ gamma(Z;Z,Y,Y)       8710.9074
@ gamma(Z;Y,Y,Z)       8710.9074
@ gamma(Z;Y,Z,Y)       8556.6729
@ gamma(Z;Z,Z,Z)      40371.7389

@ Averaged gamma parallel to the applied field is     19043.024258

  Total CPU  time used in RESPONSE:   6 hours 38 minutes 42 seconds
  Total wall time used in RESPONSE:   6 hours 38 minutes 48 seconds


                   .-------------------------------------------.
                   | End of Dynamic Property Section (RESPONS) |
                   `-------------------------------------------'

  Total CPU  time used in DALTON:   7 hours 26 minutes 57 seconds
  Total wall time used in DALTON:   7 hours 27 minutes  6 seconds

 
     Date and time (Linux)  : Sun Jan 12 05:58:26 2020
     Host name              : Lab2-333-NPs                            
