

     ************************************************************************
     *************** Dalton - An Electronic Structure Program ***************
     ************************************************************************

    This is output from DALTON release Dalton2018.0 (2018)
         ( Web site: http://daltonprogram.org )

   ----------------------------------------------------------------------------

    NOTE:
     
    Dalton is an experimental code for the evaluation of molecular
    properties using (MC)SCF, DFT, CI, and CC wave functions.
    The authors accept no responsibility for the performance of
    the code or for the correctness of the results.
     
    The code (in whole or part) is provided under a licence and
    is not to be reproduced for further distribution without
    the written permission of the authors or their representatives.
     
    See the home page "http://daltonprogram.org" for further information.
     
    If results obtained with this code are published,
    the appropriate citations would be both of:
     
       K. Aidas, C. Angeli, K. L. Bak, V. Bakken, R. Bast,
       L. Boman, O. Christiansen, R. Cimiraglia, S. Coriani,
       P. Dahle, E. K. Dalskov, U. Ekstroem,
       T. Enevoldsen, J. J. Eriksen, P. Ettenhuber, B. Fernandez,
       L. Ferrighi, H. Fliegl, L. Frediani, K. Hald, A. Halkier,
       C. Haettig, H. Heiberg, T. Helgaker, A. C. Hennum,
       H. Hettema, E. Hjertenaes, S. Hoest, I.-M. Hoeyvik,
       M. F. Iozzi, B. Jansik, H. J. Aa. Jensen, D. Jonsson,
       P. Joergensen, J. Kauczor, S. Kirpekar,
       T. Kjaergaard, W. Klopper, S. Knecht, R. Kobayashi, H. Koch,
       J. Kongsted, A. Krapp, K. Kristensen, A. Ligabue,
       O. B. Lutnaes, J. I. Melo, K. V. Mikkelsen, R. H. Myhre,
       C. Neiss, C. B. Nielsen, P. Norman, J. Olsen,
       J. M. H. Olsen, A. Osted, M. J. Packer, F. Pawlowski,
       T. B. Pedersen, P. F. Provasi, S. Reine, Z. Rinkevicius,
       T. A. Ruden, K. Ruud, V. Rybkin, P. Salek, C. C. M. Samson,
       A. Sanchez de Meras, T. Saue, S. P. A. Sauer,
       B. Schimmelpfennig, K. Sneskov, A. H. Steindal,
       K. O. Sylvester-Hvid, P. R. Taylor, A. M. Teale,
       E. I. Tellgren, D. P. Tew, A. J. Thorvaldsen, L. Thoegersen,
       O. Vahtras, M. A. Watson, D. J. D. Wilson, M. Ziolkowski
       and H. Agren,
       "The Dalton quantum chemistry program system",
       WIREs Comput. Mol. Sci. 2014, 4:269–284 (doi: 10.1002/wcms.1172)
     
    and
     
       Dalton, a molecular electronic structure program,
       Release Dalton2018.0 (2018), see http://daltonprogram.org
   ----------------------------------------------------------------------------

    Authors in alphabetical order (major contribution(s) in parenthesis):

  Kestutis Aidas,           Vilnius University,           Lithuania   (QM/MM)
  Celestino Angeli,         University of Ferrara,        Italy       (NEVPT2)
  Keld L. Bak,              UNI-C,                        Denmark     (AOSOPPA, non-adiabatic coupling, magnetic properties)
  Vebjoern Bakken,          University of Oslo,           Norway      (DALTON; geometry optimizer, symmetry detection)
  Radovan Bast,             UiT The Arctic U. of Norway,  Norway      (DALTON installation and execution frameworks)
  Pablo Baudin,             University of Valencia,       Spain       (Cholesky excitation energies)
  Linus Boman,              NTNU,                         Norway      (Cholesky decomposition and subsystems)
  Ove Christiansen,         Aarhus University,            Denmark     (CC module)
  Renzo Cimiraglia,         University of Ferrara,        Italy       (NEVPT2)
  Sonia Coriani,            Technical Univ. of Denmark,   Denmark     (CC module, MCD in RESPONS)
  Janusz Cukras,            University of Trieste,        Italy       (MChD in RESPONS)
  Paal Dahle,               University of Oslo,           Norway      (Parallelization)
  Erik K. Dalskov,          UNI-C,                        Denmark     (SOPPA)
  Thomas Enevoldsen,        Univ. of Southern Denmark,    Denmark     (SOPPA)
  Janus J. Eriksen,         Aarhus University,            Denmark     (Polarizable embedding model, TDA)
  Rasmus Faber,             University of Copenhagen,     Denmark     (Vib.avg. NMR with SOPPA, parallel AO-SOPPA)
  Tobias Fahleson,          KTH Stockholm,                Sweden      (Damped cubic response)
  Berta Fernandez,          U. of Santiago de Compostela, Spain       (doublet spin, ESR in RESPONS)
  Lara Ferrighi,            Aarhus University,            Denmark     (PCM Cubic response)
  Heike Fliegl,             University of Oslo,           Norway      (CCSD(R12))
  Luca Frediani,            UiT The Arctic U. of Norway,  Norway      (PCM)
  Bin Gao,                  UiT The Arctic U. of Norway,  Norway      (Gen1Int library)
  Christof Haettig,         Ruhr-University Bochum,       Germany     (CC module)
  Kasper Hald,              Aarhus University,            Denmark     (CC module)
  Asger Halkier,            Aarhus University,            Denmark     (CC module)
  Frederik Beyer Hansen,    University of Copenhagen,     Denmark     (Parallel AO-SOPPA)
  Erik D. Hedegaard,        Univ. of Southern Denmark,    Denmark     (Polarizable embedding model, QM/MM)
  Hanne Heiberg,            University of Oslo,           Norway      (geometry analysis, selected one-electron integrals)
  Trygve Helgaker,          University of Oslo,           Norway      (DALTON; ABACUS, ERI, DFT modules, London, and much more)
  Alf Christian Hennum,     University of Oslo,           Norway      (Parity violation)
  Hinne Hettema,            University of Auckland,       New Zealand (quadratic response in RESPONS; SIRIUS supersymmetry)
  Eirik Hjertenaes,         NTNU,                         Norway      (Cholesky decomposition)
  Pi A. B. Haase,           University of Copenhagen,     Denmark     (Triplet AO-SOPPA)
  Maria Francesca Iozzi,    University of Oslo,           Norway      (RPA)
  Christoph Jacob           TU Braunschweig               Germany     (Frozen density embedding model)
  Brano Jansik              Technical Univ. of Ostrava    Czech Rep.  (DFT cubic response)
  Hans Joergen Aa. Jensen,  Univ. of Southern Denmark,    Denmark     (DALTON; SIRIUS, RESPONS, ABACUS modules, London, and much more)
  Dan Jonsson,              UiT The Arctic U. of Norway,  Norway      (cubic response in RESPONS module)
  Poul Joergensen,          Aarhus University,            Denmark     (RESPONS, ABACUS, and CC modules)
  Maciej Kaminski,          University of Warsaw,         Poland      (CPPh in RESPONS)
  Joanna Kauczor,           Linkoeping University,        Sweden      (Complex polarization propagator (CPP) module)
  Sheela Kirpekar,          Univ. of Southern Denmark,    Denmark     (Mass-velocity & Darwin integrals)
  Wim Klopper,              KIT Karlsruhe,                Germany     (R12 code in CC, SIRIUS, and ABACUS modules)
  Stefan Knecht,            ETH Zurich,                   Switzerland (Parallel CI and MCSCF)
  Rika Kobayashi,           Australian National Univ.,    Australia   (DIIS in CC, London in MCSCF)
  Henrik Koch,              NTNU,                         Norway      (CC module, Cholesky decomposition)
  Jacob Kongsted,           Univ. of Southern Denmark,    Denmark     (Polarizable embedding model, QM/MM)
  Andrea Ligabue,           University of Modena,         Italy       (CTOCD, AOSOPPA)
  Nanna H. List             Univ. of Southern Denmark,    Denmark     (Polarizable embedding model)
  Ola B. Lutnaes,           University of Oslo,           Norway      (DFT Hessian)
  Juan I. Melo,             University of Buenos Aires,   Argentina   (LRESC, Relativistic Effects on NMR Shieldings)
  Kurt V. Mikkelsen,        University of Copenhagen,     Denmark     (MC-SCRF and QM/MM)
  Rolf H. Myhre,            NTNU,                         Norway      (Subsystems and CC3)
  Christian Neiss,          Univ. Erlangen-Nuernberg,     Germany     (CCSD(R12))
  Christian B. Nielsen,     University of Copenhagen,     Denmark     (QM/MM)
  Patrick Norman,           KTH Stockholm,                Sweden      (Cubic response and complex frequency response in RESPONS)
  Jeppe Olsen,              Aarhus University,            Denmark     (SIRIUS CI/density modules)
  Jogvan Magnus H. Olsen,   Univ. of Southern Denmark,    Denmark     (Polarizable embedding model, QM/MM)
  Anders Osted,             Copenhagen University,        Denmark     (QM/MM)
  Martin J. Packer,         University of Sheffield,      UK          (SOPPA)
  Filip Pawlowski,          Kazimierz Wielki University,  Poland      (CC3)
  Morten N. Pedersen,       Univ. of Southern Denmark,    Denmark     (Polarizable embedding model)
  Thomas B. Pedersen,       University of Oslo,           Norway      (Cholesky decomposition)
  Patricio F. Provasi,      University of Northeastern,   Argentina   (Analysis of coupling constants in localized orbitals)
  Zilvinas Rinkevicius,     KTH Stockholm,                Sweden      (open-shell DFT, ESR)
  Elias Rudberg,            KTH Stockholm,                Sweden      (DFT grid and basis info)
  Torgeir A. Ruden,         University of Oslo,           Norway      (Numerical derivatives in ABACUS)
  Kenneth Ruud,             UiT The Arctic U. of Norway,  Norway      (DALTON; ABACUS magnetic properties and much more)
  Pawel Salek,              KTH Stockholm,                Sweden      (DALTON; DFT code)
  Claire C. M. Samson       University of Karlsruhe       Germany     (Boys localization, r12 integrals in ERI)
  Alfredo Sanchez de Meras, University of Valencia,       Spain       (CC module, Cholesky decomposition)
  Trond Saue,               Paul Sabatier University,     France      (direct Fock matrix construction)
  Stephan P. A. Sauer,      University of Copenhagen,     Denmark     (SOPPA(CCSD), SOPPA prop., AOSOPPA, vibrational g-factors)
  Andre S. P. Gomes,        CNRS/Universite de Lille,     France      (Frozen density embedding model)
  Bernd Schimmelpfennig,    Forschungszentrum Karlsruhe,  Germany     (AMFI module)
  Kristian Sneskov,         Aarhus University,            Denmark     (Polarizable embedding model, QM/MM)
  Arnfinn H. Steindal,      UiT The Arctic U. of Norway,  Norway      (parallel QM/MM, Polarizable embedding model)
  Casper Steinmann,         Univ. of Southern Denmark,    Denmark     (QFIT, Polarizable embedding model)
  K. O. Sylvester-Hvid,     University of Copenhagen,     Denmark     (MC-SCRF)
  Peter R. Taylor,          VLSCI/Univ. of Melbourne,     Australia   (Symmetry handling ABACUS, integral transformation)
  Andrew M. Teale,          University of Nottingham,     England     (DFT-AC, DFT-D)
  David P. Tew,             University of Bristol,        England     (CCSD(R12))
  Olav Vahtras,             KTH Stockholm,                Sweden      (triplet response, spin-orbit, ESR, TDDFT, open-shell DFT)
  Lucas Visscher,           Vrije Universiteit Amsterdam, Netherlands (Frozen density embedding model)
  David J. Wilson,          La Trobe University,          Australia   (DFT Hessian and DFT magnetizabilities)
  Hans Agren,               KTH Stockholm,                Sweden      (SIRIUS module, RESPONS, MC-SCRF solvation model)
 --------------------------------------------------------------------------------

     Date and time (Linux)  : Fri Mar 27 14:30:13 2020
     Host name              : Mechanist                               

 * Work memory size             :  1024000000 =  7.629 gigabytes.

 * Directories for basis set searches:
   1) /home/Main/dalton/build_gnu_builtin_2018
   2) /home/Main/dalton/build_gnu_builtin_2018/basis


Compilation information
-----------------------

 Who compiled             | Main
 Host                     | Mechanist
 System                   | Linux-4.4.0-17134-Microsoft
 CMake generator          | Unix Makefiles
 Processor                | x86_64
 64-bit integers          | OFF
 MPI                      | OFF
 Fortran compiler         | /home/Main/psi4conda/bin/gfortran
 Fortran compiler version | GNU Fortran (GCC) 5.2.0
 C compiler               | /home/Main/psi4conda/bin/gcc
 C compiler version       | gcc (GCC) 5.2.0
 C++ compiler             | /home/Main/psi4conda/bin/g++
 C++ compiler version     | g++ (GCC) 5.2.0
 Static linking           | OFF
 Last Git revision        | d16802317e0785578e491e600c73cfb6bfb70ff0
 Git branch               | (HEAD detached at Dalton2018.0)
 Configuration time       | 2018-11-28 13:40:25.915110


   Content of the .dal input file
 ----------------------------------

**DALTON INPUT
.RUN RESPONSE
.DIRECT
**WAVE FUNCTIONS
.HF
.MP2
.MCSCF
*CONFIGURATION INPUT
.SPIN MULTIPLICITY
1
.SYMMETRY
1
.INACTIVE ORBITALS
15 10 2 0
.CAS SPACE
1 1 2 3
.ELECTRONS
10
*ORBITAL INPUT
.MOSTART
.HUCKEL
*OPTIMIZATION
.DETERMINANTS
.STATE
2
*CI VECTOR
.PLUS COMBINATIONS
**RESPONSE
*CUBIC
.DIPLEN
.BFREQ
1
0.0544
.CFREQ
1
0.0544
.DFREQ
1
-0.0544
**END OF DALTON INPUT


   Content of the .mol file
 ----------------------------

BASIS
aug-cc-pCVDZ
 nitrobenzene
 Generated by the Dalton Input File Plugin for Avogadro
Atomtypes=4 Angstrom Generators=2 X Y
Charge=6.0 Atoms=4
C        0.0000000000            0.0000000000           -0.0265759623
C       -1.2190534920            0.0000000000           -0.6979856948
C       -1.2105095870            0.0000000000           -2.0897394457
C        0.0000000000            0.0000000000           -2.7841484631
Charge=7.0 Atoms=1
N        0.0000000000            0.0000000000            1.4549291696
Charge=8.0 Atoms=1
O       1.0847503743            0.0            2.0235779798
Charge=1.0 Atoms=3
H       -2.1410602955            0.0000000000           -0.1327964319
H       -2.1492827751            0.0000000000           -2.6311811056
H        0.0000000000            0.0000000000           -3.8683953478


       *******************************************************************
       *********** Output from DALTON general input processing ***********
       *******************************************************************

 --------------------------------------------------------------------------------
   Overall default print level:    0
   Print level for DALTON.STAT:    1

    AO-direct calculation (in sections where implemented)
    HERMIT 1- and 2-electron integral sections will be executed
    "Old" integral transformation used (limited to max 255 basis functions)
    Wave function sections will be executed (SIRIUS module)
    Dynamic molecular response properties section will be executed (RESPONSE module)
 --------------------------------------------------------------------------------


   ****************************************************************************
   *************** Output of molecule and basis set information ***************
   ****************************************************************************


    The two title cards from your ".mol" input:
    ------------------------------------------------------------------------
 1:  nitrobenzene                                                           
 2:  Generated by the Dalton Input File Plugin for Avogadro                 
    ------------------------------------------------------------------------

  Coordinates are entered in Angstrom and converted to atomic units.
          - Conversion factor : 1 bohr = 0.52917721 A

  Atomic type no.    1
  --------------------
  Nuclear charge:   6.00000
  Number of symmetry independent centers:    4
  Number of basis sets to read;    2
  Basis set file used for this atomic type with Z =   6 :
     "/home/Main/dalton/build_gnu_builtin_2018/basis/aug-cc-pCVDZ"

  Atomic type no.    2
  --------------------
  Nuclear charge:   7.00000
  Number of symmetry independent centers:    1
  Number of basis sets to read;    2
  Basis set file used for this atomic type with Z =   7 :
     "/home/Main/dalton/build_gnu_builtin_2018/basis/aug-cc-pCVDZ"

  Atomic type no.    3
  --------------------
  Nuclear charge:   8.00000
  Number of symmetry independent centers:    1
  Number of basis sets to read;    2
  Basis set file used for this atomic type with Z =   8 :
     "/home/Main/dalton/build_gnu_builtin_2018/basis/aug-cc-pCVDZ"

  Atomic type no.    4
  --------------------
  Nuclear charge:   1.00000
  Number of symmetry independent centers:    3
  Number of basis sets to read;    2
  Basis set file used for this atomic type with Z =   1 :
     "/home/Main/dalton/build_gnu_builtin_2018/basis/aug-cc-pCVDZ"


                         SYMGRP: Point group information
                         -------------------------------

@    Point group: C2v

@  * The irrep name for each symmetry:    1: A1     2: B1     3: B2     4: A2 

   * The point group was generated by:

      Reflection in the yz-plane
      Reflection in the xz-plane

   * Group multiplication table

        |  E   C2z  Oxz  Oyz
   -----+--------------------
     E  |  E   C2z  Oxz  Oyz
    C2z | C2z   E   Oyz  Oxz
    Oxz | Oxz  Oyz   E   C2z
    Oyz | Oyz  Oxz  C2z   E 

   * Character table

        |  E   C2z  Oxz  Oyz
   -----+--------------------
    A1  |   1    1    1    1
    B1  |   1   -1    1   -1
    B2  |   1   -1   -1    1
    A2  |   1    1   -1   -1

   * Direct product table

        | A1   B1   B2   A2 
   -----+--------------------
    A1  | A1   B1   B2   A2 
    B1  | B1   A1   A2   B2 
    B2  | B2   A2   A1   B1 
    A2  | A2   B2   B1   A1 


                                 Isotopic Masses
                                 ---------------

                           C          12.000000
                           C   _1     12.000000
                           C   _2     12.000000
                           C   _1     12.000000
                           C   _2     12.000000
                           C          12.000000
                           N          14.003074
                           O   _1     15.994915
                           O   _2     15.994915
                           H   _1      1.007825
                           H   _2      1.007825
                           H   _1      1.007825
                           H   _2      1.007825
                           H           1.007825

                       Total mass:   123.032029 amu
                       Natural abundance:  92.716 %

 Center-of-mass coordinates (a.u.):    0.000000    0.000000   -0.383938


  Atoms and basis sets
  --------------------

  Number of atom types :    4
  Total number of atoms:   14

  Basis set used is "aug-cc-pCVDZ" from the basis set library.

  label    atoms   charge   prim   cont     basis
  ----------------------------------------------------------------------
  C           6    6.0000    39    27      [11s6p2d|5s4p2d]                                   
  N           1    7.0000    39    27      [11s6p2d|5s4p2d]                                   
  O           2    8.0000    39    27      [11s6p2d|5s4p2d]                                   
  H           5    1.0000    11     9      [5s2p|3s2p]                                        
  ----------------------------------------------------------------------
  total:     14   64.0000   406   288
  ----------------------------------------------------------------------
  Spherical harmonic basis used.

  Threshold for neglecting AO integrals:  1.00D-12


  Symmetry Coordinates
  --------------------

  Number of coordinates in each symmetry:    14   14    9    5


   Interatomic separations (in Angstrom):
   --------------------------------------

            C           C   _1      C   _2      C   _1      C   _2      C     
            ------      ------      ------      ------      ------      ------
 C     :    0.000000
 C   _1:    1.391719    0.000000
 C   _2:    1.391719    2.438107    0.000000
 C   _1:    2.392065    1.391780    2.799956    0.000000
 C   _2:    2.392065    2.799956    1.391780    2.421019    0.000000
 C     :    2.757573    2.416230    2.416230    1.395542    1.395542    0.000000
 N     :    1.481505    2.474093    2.474093    3.745665    3.745665    4.239078
 O   _1:    2.319443    3.565729    2.724875    4.710371    4.115239    4.928582
 O   _2:    2.319443    2.724875    3.565729    4.115239    4.710371    4.928582
 H   _1:    2.143694    1.081451    3.407316    2.166922    3.881063    3.407904
 H   _2:    2.143694    3.407316    1.081451    3.881063    2.166922    3.407904
 H   _1:    3.376890    2.145360    3.883675    1.083722    3.403140    2.154719
 H   _2:    3.376890    3.883675    2.145360    3.403140    1.083722    2.154719
 H     :    3.841819    3.396703    3.396703    2.151500    2.151500    1.084247

            N           O   _1      O   _2      H   _1      H   _2      H   _1
            ------      ------      ------      ------      ------      ------
 N     :    0.000000
 O   _1:    1.224763    0.000000
 O   _2:    1.224763    2.169501    0.000000
 H   _1:    2.665523    3.880181    2.401196    0.000000
 H   _2:    2.665523    2.401196    3.880181    4.282121    0.000000
 H   _1:    4.616894    5.667958    4.774936    2.498398    4.964773    0.000000
 H   _2:    4.616894    4.774936    5.667958    4.964773    2.498398    4.298566
 H     :    5.323325    5.990996    5.990996    4.305675    4.305675    2.479943

            H   _2      H     
            ------      ------
 H   _2:    0.000000
 H     :    2.479943    0.000000


  Max    interatomic separation is    5.9910 Angstrom (   11.3213 Bohr)
  between atoms   14 and    8, "H     " and "O   _1".

  Min HX interatomic separation is    1.0815 Angstrom (    2.0436 Bohr)

  Min YX interatomic separation is    1.2248 Angstrom (    2.3145 Bohr)


  Bond distances (Angstrom):
  --------------------------

                  atom 1     atom 2       distance
                  ------     ------       --------
  bond distance:  C   _1     C            1.391719
  bond distance:  C   _2     C            1.391719
  bond distance:  C   _1     C   _1       1.391780
  bond distance:  C   _2     C   _2       1.391780
  bond distance:  C          C   _1       1.395542
  bond distance:  C          C   _2       1.395542
  bond distance:  N          C            1.481505
  bond distance:  O   _1     N            1.224763
  bond distance:  O   _2     N            1.224763
  bond distance:  H   _1     C   _1       1.081451
  bond distance:  H   _2     C   _2       1.081451
  bond distance:  H   _1     C   _1       1.083722
  bond distance:  H   _2     C   _2       1.083722
  bond distance:  H          C            1.084247


  Bond angles (degrees):
  ----------------------

                  atom 1     atom 2     atom 3         angle
                  ------     ------     ------         -----
  bond angle:     C   _1     C          C   _2       122.311
  bond angle:     C   _1     C          N            118.844
  bond angle:     C   _2     C          N            118.844
  bond angle:     C          C   _1     C   _1       118.493
  bond angle:     C          C   _1     H   _1       119.647
  bond angle:     C   _1     C   _1     H   _1       121.860
  bond angle:     C          C   _2     C   _2       118.493
  bond angle:     C          C   _2     H   _2       119.647
  bond angle:     C   _2     C   _2     H   _2       121.860
  bond angle:     C   _1     C   _1     C            120.192
  bond angle:     C   _1     C   _1     H   _1       119.623
  bond angle:     C          C   _1     H   _1       120.185
  bond angle:     C   _2     C   _2     C            120.192
  bond angle:     C   _2     C   _2     H   _2       119.623
  bond angle:     C          C   _2     H   _2       120.185
  bond angle:     C   _1     C          C   _2       120.319
  bond angle:     C   _1     C          H            119.841
  bond angle:     C   _2     C          H            119.841
  bond angle:     C          N          O   _1       117.664
  bond angle:     C          N          O   _2       117.664
  bond angle:     O   _1     N          O   _2       124.671




 Principal moments of inertia (u*A**2) and principal axes
 --------------------------------------------------------

   IA     127.027245          0.000000    0.000000    1.000000
   IB     394.156158          1.000000    0.000000    0.000000
   IC     521.183403          0.000000    1.000000    0.000000


 Rotational constants
 --------------------

@    The molecule is planar.

               A                   B                   C

           3978.5088           1282.1797            969.6759 MHz
            0.132709            0.042769            0.032345 cm-1


@  Nuclear repulsion energy :  412.135415267067 Hartree


  Symmetry Orbitals
  -----------------

  Number of orbitals in each symmetry:         115   91   48   34


  Symmetry  A1 ( 1)

    1     C        1s         1
    2     C        1s         2
    3     C        1s         3
    4     C        1s         4
    5     C        1s         5
    6     C        2pz        8
    7     C        2pz       11
    8     C        2pz       14
    9     C        2pz       17
   10     C        3d0       20
   11     C        3d2+      22
   12     C        3d0       25
   13     C        3d2+      27
   14     C        1s        28 +   29
   15     C        1s        30 +   31
   16     C        1s        32 +   33
   17     C        1s        34 +   35
   18     C        1s        36 +   37
   19     C        2px       38 -   39
   20     C        2pz       42 +   43
   21     C        2px       44 -   45
   22     C        2pz       48 +   49
   23     C        2px       50 -   51
   24     C        2pz       54 +   55
   25     C        2px       56 -   57
   26     C        2pz       60 +   61
   27     C        3d0       66 +   67
   28     C        3d1+      68 -   69
   29     C        3d2+      70 +   71
   30     C        3d0       76 +   77
   31     C        3d1+      78 -   79
   32     C        3d2+      80 +   81
   33     C        1s        82 +   83
   34     C        1s        84 +   85
   35     C        1s        86 +   87
   36     C        1s        88 +   89
   37     C        1s        90 +   91
   38     C        2px       92 -   93
   39     C        2pz       96 +   97
   40     C        2px       98 -   99
   41     C        2pz      102 +  103
   42     C        2px      104 -  105
   43     C        2pz      108 +  109
   44     C        2px      110 -  111
   45     C        2pz      114 +  115
   46     C        3d0      120 +  121
   47     C        3d1+     122 -  123
   48     C        3d2+     124 +  125
   49     C        3d0      130 +  131
   50     C        3d1+     132 -  133
   51     C        3d2+     134 +  135
   52     C        1s       136
   53     C        1s       137
   54     C        1s       138
   55     C        1s       139
   56     C        1s       140
   57     C        2pz      143
   58     C        2pz      146
   59     C        2pz      149
   60     C        2pz      152
   61     C        3d0      155
   62     C        3d2+     157
   63     C        3d0      160
   64     C        3d2+     162
   65     N        1s       163
   66     N        1s       164
   67     N        1s       165
   68     N        1s       166
   69     N        1s       167
   70     N        2pz      170
   71     N        2pz      173
   72     N        2pz      176
   73     N        2pz      179
   74     N        3d0      182
   75     N        3d2+     184
   76     N        3d0      187
   77     N        3d2+     189
   78     O        1s       190 +  191
   79     O        1s       192 +  193
   80     O        1s       194 +  195
   81     O        1s       196 +  197
   82     O        1s       198 +  199
   83     O        2px      200 -  201
   84     O        2pz      204 +  205
   85     O        2px      206 -  207
   86     O        2pz      210 +  211
   87     O        2px      212 -  213
   88     O        2pz      216 +  217
   89     O        2px      218 -  219
   90     O        2pz      222 +  223
   91     O        3d0      228 +  229
   92     O        3d1+     230 -  231
   93     O        3d2+     232 +  233
   94     O        3d0      238 +  239
   95     O        3d1+     240 -  241
   96     O        3d2+     242 +  243
   97     H        1s       244 +  245
   98     H        1s       246 +  247
   99     H        1s       248 +  249
  100     H        2px      250 -  251
  101     H        2pz      254 +  255
  102     H        2px      256 -  257
  103     H        2pz      260 +  261
  104     H        1s       262 +  263
  105     H        1s       264 +  265
  106     H        1s       266 +  267
  107     H        2px      268 -  269
  108     H        2pz      272 +  273
  109     H        2px      274 -  275
  110     H        2pz      278 +  279
  111     H        1s       280
  112     H        1s       281
  113     H        1s       282
  114     H        2pz      285
  115     H        2pz      288


  Symmetry  B1 ( 2)

  116     C        2px        6
  117     C        2px        9
  118     C        2px       12
  119     C        2px       15
  120     C        3d1+      21
  121     C        3d1+      26
  122     C        1s        28 -   29
  123     C        1s        30 -   31
  124     C        1s        32 -   33
  125     C        1s        34 -   35
  126     C        1s        36 -   37
  127     C        2px       38 +   39
  128     C        2pz       42 -   43
  129     C        2px       44 +   45
  130     C        2pz       48 -   49
  131     C        2px       50 +   51
  132     C        2pz       54 -   55
  133     C        2px       56 +   57
  134     C        2pz       60 -   61
  135     C        3d0       66 -   67
  136     C        3d1+      68 +   69
  137     C        3d2+      70 -   71
  138     C        3d0       76 -   77
  139     C        3d1+      78 +   79
  140     C        3d2+      80 -   81
  141     C        1s        82 -   83
  142     C        1s        84 -   85
  143     C        1s        86 -   87
  144     C        1s        88 -   89
  145     C        1s        90 -   91
  146     C        2px       92 +   93
  147     C        2pz       96 -   97
  148     C        2px       98 +   99
  149     C        2pz      102 -  103
  150     C        2px      104 +  105
  151     C        2pz      108 -  109
  152     C        2px      110 +  111
  153     C        2pz      114 -  115
  154     C        3d0      120 -  121
  155     C        3d1+     122 +  123
  156     C        3d2+     124 -  125
  157     C        3d0      130 -  131
  158     C        3d1+     132 +  133
  159     C        3d2+     134 -  135
  160     C        2px      141
  161     C        2px      144
  162     C        2px      147
  163     C        2px      150
  164     C        3d1+     156
  165     C        3d1+     161
  166     N        2px      168
  167     N        2px      171
  168     N        2px      174
  169     N        2px      177
  170     N        3d1+     183
  171     N        3d1+     188
  172     O        1s       190 -  191
  173     O        1s       192 -  193
  174     O        1s       194 -  195
  175     O        1s       196 -  197
  176     O        1s       198 -  199
  177     O        2px      200 +  201
  178     O        2pz      204 -  205
  179     O        2px      206 +  207
  180     O        2pz      210 -  211
  181     O        2px      212 +  213
  182     O        2pz      216 -  217
  183     O        2px      218 +  219
  184     O        2pz      222 -  223
  185     O        3d0      228 -  229
  186     O        3d1+     230 +  231
  187     O        3d2+     232 -  233
  188     O        3d0      238 -  239
  189     O        3d1+     240 +  241
  190     O        3d2+     242 -  243
  191     H        1s       244 -  245
  192     H        1s       246 -  247
  193     H        1s       248 -  249
  194     H        2px      250 +  251
  195     H        2pz      254 -  255
  196     H        2px      256 +  257
  197     H        2pz      260 -  261
  198     H        1s       262 -  263
  199     H        1s       264 -  265
  200     H        1s       266 -  267
  201     H        2px      268 +  269
  202     H        2pz      272 -  273
  203     H        2px      274 +  275
  204     H        2pz      278 -  279
  205     H        2px      283
  206     H        2px      286


  Symmetry  B2 ( 3)

  207     C        2py        7
  208     C        2py       10
  209     C        2py       13
  210     C        2py       16
  211     C        3d1-      19
  212     C        3d1-      24
  213     C        2py       40 +   41
  214     C        2py       46 +   47
  215     C        2py       52 +   53
  216     C        2py       58 +   59
  217     C        3d2-      62 -   63
  218     C        3d1-      64 +   65
  219     C        3d2-      72 -   73
  220     C        3d1-      74 +   75
  221     C        2py       94 +   95
  222     C        2py      100 +  101
  223     C        2py      106 +  107
  224     C        2py      112 +  113
  225     C        3d2-     116 -  117
  226     C        3d1-     118 +  119
  227     C        3d2-     126 -  127
  228     C        3d1-     128 +  129
  229     C        2py      142
  230     C        2py      145
  231     C        2py      148
  232     C        2py      151
  233     C        3d1-     154
  234     C        3d1-     159
  235     N        2py      169
  236     N        2py      172
  237     N        2py      175
  238     N        2py      178
  239     N        3d1-     181
  240     N        3d1-     186
  241     O        2py      202 +  203
  242     O        2py      208 +  209
  243     O        2py      214 +  215
  244     O        2py      220 +  221
  245     O        3d2-     224 -  225
  246     O        3d1-     226 +  227
  247     O        3d2-     234 -  235
  248     O        3d1-     236 +  237
  249     H        2py      252 +  253
  250     H        2py      258 +  259
  251     H        2py      270 +  271
  252     H        2py      276 +  277
  253     H        2py      284
  254     H        2py      287


  Symmetry  A2 ( 4)

  255     C        3d2-      18
  256     C        3d2-      23
  257     C        2py       40 -   41
  258     C        2py       46 -   47
  259     C        2py       52 -   53
  260     C        2py       58 -   59
  261     C        3d2-      62 +   63
  262     C        3d1-      64 -   65
  263     C        3d2-      72 +   73
  264     C        3d1-      74 -   75
  265     C        2py       94 -   95
  266     C        2py      100 -  101
  267     C        2py      106 -  107
  268     C        2py      112 -  113
  269     C        3d2-     116 +  117
  270     C        3d1-     118 -  119
  271     C        3d2-     126 +  127
  272     C        3d1-     128 -  129
  273     C        3d2-     153
  274     C        3d2-     158
  275     N        3d2-     180
  276     N        3d2-     185
  277     O        2py      202 -  203
  278     O        2py      208 -  209
  279     O        2py      214 -  215
  280     O        2py      220 -  221
  281     O        3d2-     224 +  225
  282     O        3d1-     226 -  227
  283     O        3d2-     234 +  235
  284     O        3d1-     236 -  237
  285     H        2py      252 -  253
  286     H        2py      258 -  259
  287     H        2py      270 -  271
  288     H        2py      276 -  277

  Symmetries of electric field:  B1 (2)  B2 (3)  A1 (1)

  Symmetries of magnetic field:  B2 (3)  B1 (2)  A2 (4)


                     .---------------------------------------.
                     | Starting in Integral Section (HERMIT) |
                     `---------------------------------------'



 ***************************************************************************************
 ****************** Output from **INTEGRALS input processing (HERMIT) ******************
 ***************************************************************************************


 - Using defaults, no **INTEGRALS input found

 Default print level:        1

 Calculation of one-electron Hamiltonian integrals.

 Center of mass  (bohr):      0.000000000000      0.000000000000     -0.383938108481
 Operator center (bohr):      0.000000000000      0.000000000000      0.000000000000
 Gauge origin    (bohr):      0.000000000000      0.000000000000      0.000000000000
 Dipole origin   (bohr):      0.000000000000      0.000000000000      0.000000000000


     ************************************************************************
     ************************** Output from HERINT **************************
     ************************************************************************



                      Nuclear contribution to dipole moments
                      --------------------------------------

                 au               Debye          C m (/(10**-30)

      z    -32.41191504       -82.38286538      -274.79965949


  Time used in GABGEN     is       0.14 seconds
  Total CPU  time used in HERMIT:   0.47 seconds
  Total wall time used in HERMIT:   0.56 seconds


                        .----------------------------------.
                        | End of Integral Section (HERMIT) |
                        `----------------------------------'



                   .--------------------------------------------.
                   | Starting in Wave Function Section (SIRIUS) |
                   `--------------------------------------------'


 *** Output from Huckel module :

     Using EWMO model:          F
     Using EHT  model:          T
     Number of Huckel orbitals each symmetry:   24   17    6    3

 Huckel EHT eigenvalues for symmetry :  1
          -20.695822     -15.706036     -11.414993     -11.394585     -11.376746
          -11.362597      -1.748744      -1.555382      -1.196259      -0.941364
           -0.817059      -0.782210      -0.643577      -0.589224      -0.493397
           -0.429144      -0.328230      -0.246947      -0.225806      -0.213738
           -0.205823      -0.178738      -0.166343      -0.160473

 Huckel EHT eigenvalues for symmetry :  2
          -20.700625     -11.396474     -11.377857      -1.399983      -1.203200
           -0.879843      -0.646405      -0.569964      -0.526471      -0.479328
           -0.414891      -0.271537      -0.213209      -0.202807      -0.176234
           -0.165379      -0.163255

 Huckel EHT eigenvalues for symmetry :  3
           -0.800032      -0.672072      -0.465792      -0.384453      -0.281766
           -0.236539

 Huckel EHT eigenvalues for symmetry :  4
           -0.592875      -0.460139      -0.288832

 **********************************************************************
 *SIRIUS* a direct, restricted step, second order MCSCF program       *
 **********************************************************************

 
     Date and time (Linux)  : Fri Mar 27 14:30:14 2020
     Host name              : Mechanist                               

 Title lines from ".mol" input file:
      nitrobenzene                                                           
      Generated by the Dalton Input File Plugin for Avogadro                 

 Print level on unit LUPRI =   2 is   0
 Print level on unit LUW4  =   2 is   5

@    MC-SCF optimization.

@    Multi-configurational response calculation.
@              Type: complete active space calculation (CAS).

@    This is a combination run starting with
@              a restricted, closed shell Hartree-Fock calculation
@              an MP2 calculation

 Fock matrices are calculated directly without use of integrals on disk.

 Initial molecular orbitals are obtained according to
 ".MOSTART EHT   " input option

     Wave function specification
     ============================
@    Wave function type        --- MC-SCF ---
@    Number of closed shell electrons          54
@    Number of electrons in active shells      10
@    Total charge of the molecule               0

@    Spin multiplicity and 2 M_S                1         0
@    Total number of symmetries                 4 (point group: C2v)
@    Reference state symmetry                   1 (irrep name : A1 )

     Orbital specifications
     ======================
@    Abelian symmetry species          All |    1    2    3    4
@                                          |  A1   B1   B2   A2 
                                       --- |  ---  ---  ---  ---
@    Inactive orbitals                  27 |   15   10    2    0
@    Active orbitals                     7 |    1    1    2    3
@    Secondary orbitals                254 |   99   80   44   31
@    Total number of orbitals          288 |  115   91   48   34
@    Number of basis functions         288 |  115   91   48   34

      ** Automatic occupation of RHF orbitals **

      -- Initial occupation of symmetries is determined from extended Huckel guess.           
      -- Initial occupation of symmetries is :
@    Occupied SCF orbitals              32 |   16   11    3    2

     Optimization information
     ========================
@    Number of determinants                 115
@    Number of orbital rotations           2762
     ------------------------------------------
@    Total number of variables             2877

     Maximum number of macro iterations      40
     Maximum number of micro iterations     960
     Threshold for MCSCF gradient      1.00D-05
     Number of initial trial vectors          2
     Number of initial CI iterations          3
     Number of simultaneous trial vectors     2

@    This calculation converges to state no.   2 for the specified symmetry and spin species.

     Maximum number of NEO/NR iterations  24

    INFORMATION: Switched to "new" integral transformation (from 1988 ;-) )
    because more than 255 basis functions.


 ***********************************************
 ***** DIIS acceleration of SCF iterations *****
 ***********************************************

 C1-DIIS algorithm; max error vectors =    8

 Automatic occupation of symmetries with  64 electrons.

 Iter     Total energy    Error norm  Delta(E)    SCF occupation
 -----------------------------------------------------------------------------
   1  Screening settings (-IFTHRS, JTDIIS, DIFDEN, times)   -8    1    T  3.83D+01  4.14D+01
@  1  -432.255033762       6.47D+00  -4.32D+02    16  11   3   2
      Virial theorem: -V/T =      1.998650
@    MULPOP   C       0.34; C   _1  0.26; C   _2  0.26; C   _1  0.24; C   _2  0.24; C       0.36; N       1.30; O   _1 -1.02; O   _2 -1.02; H   _1 -0.20; 
@             H   _2 -0.20; H   _1 -0.18; H   _2 -0.18; H      -0.19; 
   1  Level shift: doubly occupied orbital energies shifted by -2.00D-01
 -----------------------------------------------------------------------------
   2  Screening settings (-IFTHRS, JTDIIS, DIFDEN, times)   -8    2    T  3.88D+01  4.10D+01
@  2  -433.840473573       2.93D+00  -1.59D+00    16  11   3   2
      Virial theorem: -V/T =      2.001483
@    MULPOP   C       0.91; C   _1  0.35; C   _2  0.35; C   _1  0.35; C   _2  0.35; C       0.38; N       0.33; O   _1 -0.52; O   _2 -0.52; H   _1 -0.40; 
@             H   _2 -0.40; H   _1 -0.40; H   _2 -0.40; H      -0.40; 
   2  Level shift: doubly occupied orbital energies shifted by -1.00D-01
 -----------------------------------------------------------------------------
   3  Screening settings (-IFTHRS, JTDIIS, DIFDEN, times)   -8    3    T  3.85D+01  4.07D+01
@  3  -434.207204089       7.17D-01  -3.67D-01    16  11   3   2
      Virial theorem: -V/T =      2.000864
@    MULPOP   C       1.68; C   _1  0.24; C   _2  0.24; C   _1  0.44; C   _2  0.44; C       0.30; N       0.67; O   _1 -0.89; O   _2 -0.89; H   _1 -0.45; 
@             H   _2 -0.45; H   _1 -0.44; H   _2 -0.44; H      -0.44; 
   3  Level shift: doubly occupied orbital energies shifted by -2.50D-02
 -----------------------------------------------------------------------------
   4  Screening settings (-IFTHRS, JTDIIS, DIFDEN, times)   -8    4    T  3.84D+01  4.26D+01
@  4  -434.232828188       1.86D-01  -2.56D-02    16  11   3   2
      Virial theorem: -V/T =      2.002656
@    MULPOP   C       1.76; C   _1  0.19; C   _2  0.19; C   _1  0.51; C   _2  0.51; C       0.28; N       0.54; O   _1 -0.86; O   _2 -0.86; H   _1 -0.45; 
@             H   _2 -0.45; H   _1 -0.46; H   _2 -0.46; H      -0.46; 
   4  Level shift: doubly occupied orbital energies shifted by -1.25D-02
 -----------------------------------------------------------------------------
   5  Screening settings (-IFTHRS, JTDIIS, DIFDEN, times)  -10    5    F  3.85D+01  4.09D+01
@  5  -434.235503640       5.52D-02  -2.68D-03    16  11   3   2
      Virial theorem: -V/T =      2.002075
@    MULPOP   C       1.80; C   _1  0.17; C   _2  0.17; C   _1  0.51; C   _2  0.51; C       0.26; N       0.53; O   _1 -0.87; O   _2 -0.87; H   _1 -0.44; 
@             H   _2 -0.44; H   _1 -0.44; H   _2 -0.44; H      -0.44; 
 -----------------------------------------------------------------------------
   6  Screening settings (-IFTHRS, JTDIIS, DIFDEN, times)  -10    6    T  3.80D+01  3.93D+01
@  6  -434.235840724       1.54D-02  -3.37D-04    16  11   3   2
      Virial theorem: -V/T =      2.001997
@    MULPOP   C       1.81; C   _1  0.16; C   _2  0.16; C   _1  0.51; C   _2  0.51; C       0.26; N       0.51; O   _1 -0.86; O   _2 -0.86; H   _1 -0.44; 
@             H   _2 -0.44; H   _1 -0.44; H   _2 -0.44; H      -0.44; 
 -----------------------------------------------------------------------------
   7  Screening settings (-IFTHRS, JTDIIS, DIFDEN, times)  -13    7    F  3.85D+01  4.09D+01
@  7  -434.235873250       6.20D-03  -3.25D-05    16  11   3   2
      Virial theorem: -V/T =      2.002033
@    MULPOP   C       1.82; C   _1  0.16; C   _2  0.16; C   _1  0.51; C   _2  0.51; C       0.26; N       0.51; O   _1 -0.86; O   _2 -0.86; H   _1 -0.44; 
@             H   _2 -0.44; H   _1 -0.44; H   _2 -0.44; H      -0.44; 
 -----------------------------------------------------------------------------
   8  Screening settings (-IFTHRS, JTDIIS, DIFDEN, times)  -13    8    T  3.81D+01  4.00D+01
@  8  -434.235878261       2.11D-03  -5.01D-06    16  11   3   2
      Virial theorem: -V/T =      2.002021
@    MULPOP   C       1.82; C   _1  0.16; C   _2  0.16; C   _1  0.51; C   _2  0.51; C       0.26; N       0.51; O   _1 -0.86; O   _2 -0.86; H   _1 -0.44; 
@             H   _2 -0.44; H   _1 -0.44; H   _2 -0.44; H      -0.44; 
 -----------------------------------------------------------------------------
   9  Screening settings (-IFTHRS, JTDIIS, DIFDEN, times)  -13    9    T  3.80D+01  3.95D+01
@  9  -434.235878813       6.62D-04  -5.52D-07    16  11   3   2
      Virial theorem: -V/T =      2.002018
@    MULPOP   C       1.82; C   _1  0.16; C   _2  0.16; C   _1  0.51; C   _2  0.51; C       0.26; N       0.51; O   _1 -0.86; O   _2 -0.86; H   _1 -0.44; 
@             H   _2 -0.44; H   _1 -0.44; H   _2 -0.44; H      -0.44; 
 -----------------------------------------------------------------------------
  10  Screening settings (-IFTHRS, JTDIIS, DIFDEN, times)  -13   10    T  3.80D+01  3.94D+01
@ 10  -434.235878868       2.21D-04  -5.52D-08    16  11   3   2
      Virial theorem: -V/T =      2.002020
@    MULPOP   C       1.82; C   _1  0.16; C   _2  0.16; C   _1  0.51; C   _2  0.51; C       0.26; N       0.51; O   _1 -0.86; O   _2 -0.86; H   _1 -0.44; 
@             H   _2 -0.44; H   _1 -0.44; H   _2 -0.44; H      -0.44; 
 -----------------------------------------------------------------------------
  11  Screening settings (-IFTHRS, JTDIIS, DIFDEN, times)  -13   11    T  3.78D+01  3.92D+01
@ 11  -434.235878877       8.32D-05  -8.75D-09    16  11   3   2
      Virial theorem: -V/T =      2.002019
@    MULPOP   C       1.82; C   _1  0.16; C   _2  0.16; C   _1  0.51; C   _2  0.51; C       0.26; N       0.51; O   _1 -0.86; O   _2 -0.86; H   _1 -0.44; 
@             H   _2 -0.44; H   _1 -0.44; H   _2 -0.44; H      -0.44; 
 -----------------------------------------------------------------------------
  12  Screening settings (-IFTHRS, JTDIIS, DIFDEN, times)  -13   12    T  3.78D+01  4.05D+01
@ 12  -434.235878878       3.45D-05  -1.49D-09    16  11   3   2
      Virial theorem: -V/T =      2.002019
@    MULPOP   C       1.82; C   _1  0.16; C   _2  0.16; C   _1  0.51; C   _2  0.51; C       0.26; N       0.51; O   _1 -0.86; O   _2 -0.86; H   _1 -0.44; 
@             H   _2 -0.44; H   _1 -0.44; H   _2 -0.44; H      -0.44; 
 -----------------------------------------------------------------------------
  13  Screening settings (-IFTHRS, JTDIIS, DIFDEN, times)  -13   13    T  3.77D+01  3.91D+01
@ 13  -434.235878878       1.91D-05  -2.20D-10    16  11   3   2
      Virial theorem: -V/T =      2.002019
@    MULPOP   C       1.82; C   _1  0.16; C   _2  0.16; C   _1  0.51; C   _2  0.51; C       0.26; N       0.51; O   _1 -0.86; O   _2 -0.86; H   _1 -0.44; 
@             H   _2 -0.44; H   _1 -0.44; H   _2 -0.44; H      -0.44; 
 -----------------------------------------------------------------------------
  14  Screening settings (-IFTHRS, JTDIIS, DIFDEN, times)  -13   14    T  3.79D+01  3.92D+01
@ 14  -434.235878879       6.79D-06  -1.07D-10    16  11   3   2
      Virial theorem: -V/T =      2.002019
@    MULPOP   C       1.82; C   _1  0.16; C   _2  0.16; C   _1  0.51; C   _2  0.51; C       0.26; N       0.51; O   _1 -0.86; O   _2 -0.86; H   _1 -0.44; 
@             H   _2 -0.44; H   _1 -0.44; H   _2 -0.44; H      -0.44; 
 -----------------------------------------------------------------------------
  15  Screening settings (-IFTHRS, JTDIIS, DIFDEN, times)  -13   15    T  3.74D+01  3.93D+01
@ 15  -434.235878879       2.78D-06  -1.14D-11    16  11   3   2
      Virial theorem: -V/T =      2.002019
@    MULPOP   C       1.82; C   _1  0.16; C   _2  0.16; C   _1  0.51; C   _2  0.51; C       0.26; N       0.51; O   _1 -0.86; O   _2 -0.86; H   _1 -0.44; 
@             H   _2 -0.44; H   _1 -0.44; H   _2 -0.44; H      -0.44; 
 -----------------------------------------------------------------------------
  16  Screening settings (-IFTHRS, JTDIIS, DIFDEN, times)  -13   16    T  3.75D+01  3.94D+01
@ 16  -434.235878879       1.24D-06   2.27D-13    16  11   3   2
      Virial theorem: -V/T =      2.002019
@    MULPOP   C       1.82; C   _1  0.16; C   _2  0.16; C   _1  0.51; C   _2  0.51; C       0.26; N       0.51; O   _1 -0.86; O   _2 -0.86; H   _1 -0.44; 
@             H   _2 -0.44; H   _1 -0.44; H   _2 -0.44; H      -0.44; 
 -----------------------------------------------------------------------------
  17  Screening settings (-IFTHRS, JTDIIS, DIFDEN, times)  -13   17    T  3.76D+01  3.93D+01
@ 17  -434.235878879       5.11D-07  -3.75D-12    16  11   3   2

@ *** DIIS converged in  17 iterations !
@     Converged SCF energy, gradient:   -434.235878878543    5.11D-07
    - total time used in SIRFCK :              0.00 seconds

 --- Writing SIRIFC interface file

 CPU and wall time for SCF :     647.875     682.744


 ----- Output from SIRIUS MP2 module -----

 Reference: H.J.Aa.Jensen, P.Jorgensen, H.Agren, and J.Olsen,
            J. Chem. Phys. 88, 3834 (1988); 89, 5354 (1988)

 Checking that the closed shell orbitals are canonical Hartree-Fock orbitals

    Number of electrons  :   64
    Closed shell orbitals:   16   11    3    2

 Generating Fock matrix

 Hartree-Fock electronic energy:        -846.371294145614
 Hartree-Fock total      energy:        -434.235878878547

 Hartree-Fock orbital energies, symmetry 1 ( A1 ),   16 occupied SCF orbitals

       -20.61417110   -15.86237593   -11.32039765   -11.28448789   -11.28185976
       -11.27434416    -1.61153917    -1.20255598    -1.09505088    -0.96341509
        -0.83330472    -0.78372016    -0.71048858    -0.65256891    -0.55708606
        -0.49641636     0.02659951     0.04407949     0.06219486     0.10461676
         0.13068121     0.13486327     0.15097555     0.15649041     0.17308626
         0.18061396     0.21474324     0.25848594     0.28798556     0.30096523
         0.31139945     0.33788010     0.35052653     0.35377489     0.37057752
         0.39572439     0.41252907     0.43304954     0.45898079     0.48504380
         0.51436659     0.56050091     0.58194351     0.58612658     0.63095206
         0.64975899     0.65911976     0.67684533     0.72619945     0.73295792
         0.74224628     0.83773124     0.88360921     0.92957689     0.95721760
         0.96439348     1.00706859     1.05644370     1.07988812     1.13685051
         1.27746893     1.36129016     1.37715011     1.44938420     1.49539752
         1.51272628     1.55193621     1.57104584     1.58860050     1.61318998
         1.68097442     1.71922358     1.74659545     1.77088345     1.87036378
         1.93984620     1.95567175     2.00819683     2.01781840     2.12777003
         2.16524209     2.23655739     2.30797107     2.37217121     2.42011244
         2.44526882     2.55215502     2.70321931     2.77323347     2.83546800
         2.88285277     2.96588688     3.03790968     3.15088457     3.27207190
         3.43086484     3.75909375     3.97779664     4.08738152     4.24035423
        19.80216512    20.33471292    20.45350212    20.62025463    23.35312307
        23.38512907    23.42606565    23.81652216    23.91403555    24.12263867
        27.07942062    31.26176545    35.80296116    39.72248038    39.83640276

 Hartree-Fock orbital energies, symmetry 2 ( B1 ),   11 occupied SCF orbitals

       -20.61422309   -11.28452640   -11.27445023    -1.40525316    -1.05608805
        -0.86811721    -0.73116970    -0.65864204    -0.62664556    -0.53266848
        -0.49556160     0.03599233     0.05989216     0.13018828     0.13329649
         0.15342205     0.17409164     0.18365653     0.21428719     0.26199246
         0.28928528     0.31373522     0.33367262     0.36187549     0.36955513
         0.39420137     0.42201700     0.43798619     0.47010802     0.56760153
         0.57788798     0.59072816     0.64895205     0.67033436     0.67933706
         0.69986787     0.75544096     0.76175078     0.82905203     0.84332427
         0.86497854     0.92993003     1.01513770     1.14112266     1.20571476
         1.24972163     1.31577769     1.40540247     1.41801391     1.48592627
         1.57081824     1.59062152     1.61155216     1.63722502     1.70212435
         1.75930380     1.77081241     1.78854622     1.88896196     1.92944576
         1.99799098     2.08394132     2.22999909     2.26182019     2.33999488
         2.34660058     2.38741819     2.53067613     2.57483557     2.76962509
         2.89839946     2.93544586     3.09429566     3.27912819     3.32978112
         3.41249618     3.75311731     3.85580868     4.21665050    20.30117581
        20.48109871    22.90558387    23.34094579    23.38926434    23.93817256
        24.12074418    24.30825335    31.44434377    35.54894131    39.63722748
        40.03400853

 Hartree-Fock orbital energies, symmetry 3 ( B2 ),    3 occupied SCF orbitals

        -0.72001900    -0.53770566    -0.37843726     0.03458080     0.10677270
         0.12551405     0.13902261     0.18397534     0.19258157     0.24522809
         0.31949811     0.34209337     0.37366666     0.44421940     0.53321574
         0.58745116     0.64292081     0.71286211     0.78993633     0.83969682
         0.87158699     0.92146827     0.92631032     0.98545767     1.14496090
         1.28691472     1.29187874     1.47082324     1.47424869     1.61581928
         1.67347141     1.70782967     1.84383688     1.89844671     1.97598987
         2.08198394     2.17780509     2.29605085     2.53772614     2.67695238
         3.66933031     3.78184748    22.54328392    22.69079477    22.82759548
        23.02617935    30.55420632    39.42094193

 Hartree-Fock orbital energies, symmetry 4 ( A2 ),    2 occupied SCF orbitals

        -0.45668199    -0.36994494     0.08557737     0.13129987     0.18584652
         0.29771046     0.41313442     0.49048500     0.54759717     0.66056978
         0.73593754     0.89541577     0.90129794     0.94413588     1.03711742
         1.08949890     1.21293458     1.24315543     1.33469620     1.48755685
         1.67165853     1.68873666     1.86045484     2.00087239     2.11673830
         2.21192537     2.35443882     2.46969306     2.60547134     3.66517699
         4.00212840    22.69204549    22.85865589    39.49631745

    E(LUMO) :     0.02659951   (in symmetry 1)
  - E(HOMO) :    -0.36994494   (in symmetry 4)
  --------------------------
    gap     :     0.39654445

---> (Re)generating AOTWOINT


     ************************************************************************
     ************************** Output from HERINT **************************
     ************************************************************************


 Threshold for neglecting two-electron integrals:  1.00D-12
 HERMIT - Number of two-electron integrals written:   203489779 ( 23.5% )
 HERMIT - Megabytes written:                           3106.305

  Time used in TWOINT     is      54.89 seconds

 2-el. integral transformation level 5: Total CPU and WALL times (sec)     481.281     569.082

 MP2 move   0.994252 electrons to unoccupied HF orbitals


@   Hartree-Fock total energy   :          -434.2358788785
@   + MP2 contribution          :            -1.7260834344
@   = MP2 second order energy   :          -435.9619623129

 Natural orbital occupation numbers, symmetry 1 (irrep A1 )
 Sum =    32.00759245; RHF =    32.00000000; Difference =     0.00759245

         1.99929005     1.99907562     1.99876147     1.99875654     1.99875179
         1.99874781     1.98691347     1.98412472     1.97944295     1.97231707
         1.96893153     1.96827032     1.96537240     1.96215915     1.95511148
         1.94583895     0.04264919     0.03587687     0.02549561     0.02382135
         0.01919835     0.01857280     0.01733459     0.01646601     0.01378678
         0.01267631     0.01165949     0.00982803     0.00853730     0.00786410
         0.00742070     0.00668784     0.00561639     0.00453967     0.00307149
         0.00294636     0.00270177     0.00261726     0.00221577     0.00202176
         0.00184771     0.00167078     0.00161242     0.00131380     0.00121167
         0.00116249     0.00105960     0.00096309     0.00071593     0.00065228
         0.00061215     0.00053529     0.00049915     0.00046308     0.00043902
         0.00041642     0.00040416     0.00038624     0.00037639     0.00035069
         0.00034204     0.00032369     0.00031264     0.00029117     0.00026770
         0.00026068     0.00022463     0.00021676     0.00020400     0.00019575
         0.00018665     0.00018579     0.00017628     0.00017097     0.00016714
         0.00016168     0.00015559     0.00014976     0.00014048     0.00013324
         0.00012600     0.00012418     0.00012190     0.00011088     0.00010499
         0.00009379     0.00007786     0.00007142     0.00005818     0.00005481
         0.00005180     0.00003960     0.00003451     0.00002814     0.00002064
         0.00001754     0.00001447     0.00001258     0.00001143     0.00000935
         0.00000874     0.00000846     0.00000701     0.00000313     0.00000299
         0.00000201     0.00000105     0.00000056     0.00000036     0.00000018
         0.00000016     0.00000000    -0.00000010    -0.00000051    -0.00005577

 Natural orbital occupation numbers, symmetry 2 (irrep B1 )
 Sum =    21.95381566; RHF =    22.00000000; Difference =    -0.04618434

         1.99928994     1.99875721     1.99875088     1.98413947     1.98002660
         1.97273754     1.96258456     1.96054625     1.95481423     1.95428922
         1.94646816     0.03812132     0.02539835     0.02378137     0.01908997
         0.01660080     0.01594382     0.01521400     0.01125531     0.01052194
         0.00911282     0.00767940     0.00580779     0.00539408     0.00516025
         0.00398147     0.00312603     0.00273144     0.00239905     0.00212914
         0.00172252     0.00162337     0.00152097     0.00131891     0.00118629
         0.00102600     0.00097340     0.00069765     0.00064103     0.00056828
         0.00049083     0.00044037     0.00042298     0.00037287     0.00035375
         0.00033746     0.00030487     0.00029257     0.00026990     0.00025894
         0.00023872     0.00021141     0.00019814     0.00018774     0.00018264
         0.00017772     0.00017020     0.00016933     0.00016020     0.00015388
         0.00014374     0.00013380     0.00012922     0.00012576     0.00011881
         0.00011287     0.00009462     0.00008943     0.00006870     0.00005433
         0.00004576     0.00003694     0.00003057     0.00002896     0.00002323
         0.00001516     0.00001424     0.00001139     0.00001061     0.00000853
         0.00000470     0.00000358     0.00000179     0.00000124     0.00000059
         0.00000028     0.00000014    -0.00000003    -0.00000020    -0.00000067
        -0.00001775

 Natural orbital occupation numbers, symmetry 3 (irrep B2 )
 Sum =     6.07755902; RHF =     6.00000000; Difference =     0.07755902

         1.95053931     1.94432957     1.90911673     0.10149697     0.06752211
         0.02962133     0.01050098     0.01030915     0.00872329     0.00793454
         0.00617060     0.00527829     0.00447546     0.00388759     0.00342592
         0.00306668     0.00153528     0.00144250     0.00099275     0.00088768
         0.00086614     0.00066159     0.00060065     0.00049500     0.00047223
         0.00041876     0.00033448     0.00029013     0.00024920     0.00022967
         0.00019740     0.00019584     0.00018985     0.00017686     0.00015337
         0.00013026     0.00012126     0.00011109     0.00010092     0.00008326
         0.00008042     0.00006275     0.00003623     0.00002029     0.00001047
         0.00000779     0.00000513     0.00000124

 Natural orbital occupation numbers, symmetry 4 (irrep A2 )
 Sum =     3.96103287; RHF =     4.00000000; Difference =    -0.03896713

         1.91632986     1.90850449     0.06656439     0.01453167     0.01040286
         0.00930725     0.00791703     0.00570712     0.00512238     0.00406010
         0.00357680     0.00152737     0.00119959     0.00093581     0.00077864
         0.00072822     0.00067357     0.00056391     0.00040707     0.00037046
         0.00033916     0.00029678     0.00021641     0.00019696     0.00016454
         0.00013308     0.00011678     0.00010380     0.00009345     0.00006954
         0.00005016     0.00002065     0.00001756     0.00000539

 Time used for MP2 natural orbitals :     526.359 CPU seconds,     616.760 wall seconds.

 CPU and wall time for MP2 :     526.359     616.760


        SIRIUS MCSCF optimization (SIROPT)
 ================================================


 Fock matrix screening setting for SIRCNO: IFTHRS =    9


 ----- Output from SIRIUS CI module (CICTL) -----




 2-el. integral transformation level 0: Total CPU and WALL times (sec)     118.844     125.156


 --- SIRCI.CIST1: plus combination of all degenerate
                 configurations is used as start vectors.


 (CIST1) 18 lowest diagonal elements:

 Element no. Config.no.    Active energy      Total energy

         1 :         67    -17.3292581930   -434.2173109224
         2 :         69    -17.0379295843   -433.9259823137
         3 :         81    -17.0379295843   -433.9259823137
         4 :         68    -16.9838401321   -433.8718928615
         5 :         74    -16.9838401321   -433.8718928615
         6 :         78    -16.8808158966   -433.7688686260
         7 :         96    -16.8808158966   -433.7688686260
         8 :         71    -16.8343853891   -433.7224381186
         9 :         95    -16.8343853891   -433.7224381186
        10 :         54    -16.7408397080   -433.6288924374
        11 :         63    -16.7408397080   -433.6288924374
        12 :         83    -16.7321033697   -433.6201560991
        13 :         76    -16.7044671395   -433.5925198689
        14 :         82    -16.7044671395   -433.5925198689
        15 :         58    -16.6907264268   -433.5787791562
        16 :         64    -16.6907264268   -433.5787791562
        17 :         72    -16.6839115071   -433.5719642365
        18 :        102    -16.6839115071   -433.5719642365


 Convergence threshold for CI optimization :     0.00000500



 *** Reached maximum number of CI iterations:    3
              1 CI roots are not converged.


@ Final CI energies and residuals in symmetry 1 (irrep A1 )
@    1     -434.265141361503197       4.08D-02
@    2     -433.900683678087262       5.87D-03
@    3     -433.871813272982763       1.86D-02
@    4     -433.825997347008695       5.37D-02
@    5     -433.666131332203634       9.20D-02
@    6     -433.631579027764019       7.49D-02

   --- OUTPUT FROM SIRCNO     Keyword = FD+NO 


 Occupations of CAS natural orbitals:

 Symmetry  1 ( irrep A1  in C2v )

   1.999887772

 Symmetry  2 ( irrep B1  in C2v )

   1.999940641

 Symmetry  3 ( irrep B2  in C2v )

   1.436244253   0.605105197

 Symmetry  4 ( irrep A2  in C2v )

   1.948042376   1.546237008   0.464542752


 --- MACRO ITERATION  1 ---
 --------------------------

 2-el. integral transformation level 3: Total CPU and WALL times (sec)     119.219     125.302

 Fock matrix screening setting for this macro iteration: 10^( -9)

 Total MCSCF energy       :          -433.900683679314682  (MACRO    1)

 - Nuclear repulsion      :           412.135415267066946
 - Inactive energy        :          -829.023467997697708
 - Active energy          :           -17.012630948683906

 Norm of total gradient   :             0.860496538322
 -    of CI gradient      :             0.011739968447
 -    of orbital gradient :             0.860416448939
      Virial theorem: -V/T =      1.996754
@    MULPOP   C       1.65; C   _1  0.33; C   _2  0.33; C   _1  0.51; C   _2  0.51; C       0.47; N       0.20; O   _1 -0.81; O   _2 -0.81; H   _1 -0.49; 
@             H   _2 -0.49; H   _1 -0.47; H   _2 -0.47; H      -0.47; 

 Residual norm when dim(red L) =   9
 NEO root     CSF        orbital          total
    2     0.14724481     0.05397546     0.15682597 converged

 (NEONEX) NEO vector is converged.

   --- OUTPUT FROM SIRCNO     Keyword = FD+NO 


 Occupations of CAS natural orbitals:

 Symmetry  1 ( irrep A1  in C2v )

   1.999892695

 Symmetry  2 ( irrep B1  in C2v )

   1.999937767

 Symmetry  3 ( irrep B2  in C2v )

   1.436655784   0.606048021

 Symmetry  4 ( irrep A2  in C2v )

   1.946551563   1.544668596   0.466245574


 --- MACRO ITERATION  2 ---
 --------------------------

 2-el. integral transformation level 3: Total CPU and WALL times (sec)     119.672     124.982

 Fock matrix screening setting for this macro iteration: 10^( -9)

 Total MCSCF energy       :          -434.014119003320445  (MACRO    2)

 - Nuclear repulsion      :           412.135415267066946
 - Inactive energy        :          -828.970247033418900
 - Active energy          :           -17.179287236968481

 Norm of total gradient   :             0.159746158616
 -    of CI gradient      :             0.113683778966
 -    of orbital gradient :             0.112226706236
      Virial theorem: -V/T =      2.001235
@    MULPOP   C       1.83; C   _1  0.18; C   _2  0.18; C   _1  0.51; C   _2  0.51; C       0.30; N       0.54; O   _1 -0.94; O   _2 -0.94; H   _1 -0.45; 
@             H   _2 -0.45; H   _1 -0.44; H   _2 -0.44; H      -0.42; 

 Residual norm when dim(red L) =  10
 NEO root     CSF        orbital          total
    1     0.03787006     0.06710367     0.07705222 converged

 (NEONEX) NEO auxiliary root no.  1 is converged.

 Residual norm when dim(red L) =  14
 NEO root     CSF        orbital          total
    2     0.02574106     0.01459592     0.02959126 converged

 (NEONEX) NEO vector is converged.

   --- OUTPUT FROM SIRCNO     Keyword = FD+NO 


 Occupations of CAS natural orbitals:

 Symmetry  1 ( irrep A1  in C2v )

   1.999794416

 Symmetry  2 ( irrep B1  in C2v )

   1.999986986

 Symmetry  3 ( irrep B2  in C2v )

   1.251755244   0.788454992

 Symmetry  4 ( irrep A2  in C2v )

   1.969035073   1.947463581   0.043509709


 --- MACRO ITERATION  3 ---
 --------------------------

 2-el. integral transformation level 3: Total CPU and WALL times (sec)     120.750     126.805

 Fock matrix screening setting for this macro iteration: 10^( -9)

 Total MCSCF energy       :          -434.048969757294344  (MACRO    3)

 - Nuclear repulsion      :           412.135415267066946
 - Inactive energy        :          -828.795698452222041
 - Active energy          :           -17.388686572139267

 Norm of total gradient   :             0.196278874825
 -    of CI gradient      :             0.047722007952
 -    of orbital gradient :             0.190389092806
      Virial theorem: -V/T =      2.001037
@    MULPOP   C       1.75; C   _1  0.27; C   _2  0.27; C   _1  0.57; C   _2  0.57; C       0.21; N       0.51; O   _1 -1.03; O   _2 -1.03; H   _1 -0.44; 
@             H   _2 -0.44; H   _1 -0.41; H   _2 -0.41; H      -0.40; 

 Residual norm when dim(red L) =  11
 NEO root     CSF        orbital          total
    1     0.04407601     0.03318198     0.05517009 converged

 (NEONEX) NEO auxiliary root no.  1 is converged.

 Residual norm when dim(red L) =  12
 NEO root     CSF        orbital          total
    2     0.03077997     0.01023678     0.03243760 converged

 (NEONEX) NEO vector is converged.

   --- OUTPUT FROM SIRCNO     Keyword = FD+NO 


 Occupations of CAS natural orbitals:

 Symmetry  1 ( irrep A1  in C2v )

   1.999861655

 Symmetry  2 ( irrep B1  in C2v )

   1.999971132

 Symmetry  3 ( irrep B2  in C2v )

   1.272537236   0.764266225

 Symmetry  4 ( irrep A2  in C2v )

   1.958078187   1.924957580   0.080327985


 --- MACRO ITERATION  4 ---
 --------------------------

 2-el. integral transformation level 3: Total CPU and WALL times (sec)     120.672     126.484

 Fock matrix screening setting for this macro iteration: 10^( -9)

 Total MCSCF energy       :          -434.055097727389693  (MACRO    4)

 - Nuclear repulsion      :           412.135415267066946
 - Inactive energy        :          -828.770148194170361
 - Active energy          :           -17.420364800286290

 Norm of total gradient   :             0.073591359773
 -    of CI gradient      :             0.069649830792
 -    of orbital gradient :             0.023761088018
      Virial theorem: -V/T =      2.000409
@    MULPOP   C       1.84; C   _1  0.21; C   _2  0.21; C   _1  0.58; C   _2  0.58; C       0.27; N       0.49; O   _1 -1.05; O   _2 -1.05; H   _1 -0.43; 
@             H   _2 -0.43; H   _1 -0.41; H   _2 -0.41; H      -0.40; 

 Residual norm when dim(red L) =   8
 NEO root     CSF        orbital          total
    1     0.05664054     0.06110774     0.08332051 converged

 (NEONEX) NEO auxiliary root no.  1 is converged.

 Residual norm when dim(red L) =  12
 NEO root     CSF        orbital          total
    2     0.01102640     0.00734642     0.01324958 converged

 (NEONEX) NEO vector is converged.

   --- OUTPUT FROM SIRCNO     Keyword = FD+NO 


 Occupations of CAS natural orbitals:

 Symmetry  1 ( irrep A1  in C2v )

   1.999605415

 Symmetry  2 ( irrep B1  in C2v )

   1.999994005

 Symmetry  3 ( irrep B2  in C2v )

   1.282899901   0.760438821

 Symmetry  4 ( irrep A2  in C2v )

   1.965243156   1.949441041   0.042377663


 --- MACRO ITERATION  5 ---
 --------------------------

 2-el. integral transformation level 3: Total CPU and WALL times (sec)     121.875     133.250

 Fock matrix screening setting for this macro iteration: 10^( -9)

 Total MCSCF energy       :          -434.057876618380078  (MACRO    5)

 - Nuclear repulsion      :           412.135415267066946
 - Inactive energy        :          -828.540520633185679
 - Active energy          :           -17.652771252261367

 Norm of total gradient   :             0.013632076484
 -    of CI gradient      :             0.010122856829
 -    of orbital gradient :             0.009130239804
      Virial theorem: -V/T =      2.000449
@    MULPOP   C       1.84; C   _1  0.22; C   _2  0.22; C   _1  0.58; C   _2  0.58; C       0.26; N       0.49; O   _1 -1.06; O   _2 -1.06; H   _1 -0.43; 
@             H   _2 -0.43; H   _1 -0.41; H   _2 -0.41; H      -0.40; 

 Residual norm when dim(red L) =   8
 NEO root     CSF        orbital          total
    1     0.05905978     0.06179351     0.08547804 converged

 (NEONEX) NEO auxiliary root no.  1 is converged.

 Residual norm when dim(red L) =  25
 NEO root     CSF        orbital          total
    2     0.00213872     0.00098808     0.00235593 converged

 (NEONEX) NEO vector is converged.

   --- OUTPUT FROM SIRCNO     Keyword = FD+NO 


 Occupations of CAS natural orbitals:

 Symmetry  1 ( irrep A1  in C2v )

   1.999252360

 Symmetry  2 ( irrep B1  in C2v )

   1.999998241

 Symmetry  3 ( irrep B2  in C2v )

   1.250459799   0.800324674

 Symmetry  4 ( irrep A2  in C2v )

   1.963642642   1.944967684   0.041354600


 --- MACRO ITERATION  6 ---
 --------------------------

 2-el. integral transformation level 3: Total CPU and WALL times (sec)     120.047     125.822

 Fock matrix screening setting for this macro iteration: 10^( -9)

 Total MCSCF energy       :          -434.058277728822759  (MACRO    6)

 - Nuclear repulsion      :           412.135415267066946
 - Inactive energy        :          -828.029702904880651
 - Active energy          :           -18.163990091009076

 Norm of total gradient   :             0.022159583186
 -    of CI gradient      :             0.010080590176
 -    of orbital gradient :             0.019733951168
      Virial theorem: -V/T =      2.000412
@    MULPOP   C       1.85; C   _1  0.22; C   _2  0.22; C   _1  0.59; C   _2  0.59; C       0.24; N       0.50; O   _1 -1.06; O   _2 -1.06; H   _1 -0.42; 
@             H   _2 -0.42; H   _1 -0.42; H   _2 -0.42; H      -0.41; 

 Residual norm when dim(red L) =  10
 NEO root     CSF        orbital          total
    1     0.08103608     0.02611235     0.08513930 converged

 (NEONEX) NEO auxiliary root no.  1 is converged.

 Residual norm when dim(red L) =  16
 NEO root     CSF        orbital          total
    2     0.00246288     0.00191182     0.00311782 converged

 (NEONEX) NEO vector is converged.

   --- OUTPUT FROM SIRCNO     Keyword = FD+NO 


 Occupations of CAS natural orbitals:

 Symmetry  1 ( irrep A1  in C2v )

   1.999286632

 Symmetry  2 ( irrep B1  in C2v )

   1.999997057

 Symmetry  3 ( irrep B2  in C2v )

   1.262876718   0.783471123

 Symmetry  4 ( irrep A2  in C2v )

   1.963520224   1.948681281   0.042166965


 --- MACRO ITERATION  7 ---
 --------------------------

 2-el. integral transformation level 3: Total CPU and WALL times (sec)     118.734     124.010

 Fock matrix screening setting for this macro iteration: 10^( -9)

 Total MCSCF energy       :          -434.058533805689365  (MACRO    7)

 - Nuclear repulsion      :           412.135415267066946
 - Inactive energy        :          -827.892442481565013
 - Active energy          :           -18.301506591191295

 Norm of total gradient   :             0.004123407303
 -    of CI gradient      :             0.003428858476
 -    of orbital gradient :             0.002290287611
      Virial theorem: -V/T =      2.000433
@    MULPOP   C       1.85; C   _1  0.22; C   _2  0.22; C   _1  0.58; C   _2  0.58; C       0.25; N       0.50; O   _1 -1.05; O   _2 -1.05; H   _1 -0.42; 
@             H   _2 -0.42; H   _1 -0.42; H   _2 -0.42; H      -0.41; 

 Residual norm when dim(red L) =  10
 NEO root     CSF        orbital          total
    1     0.07336935     0.02773695     0.07843724 converged

 (NEONEX) NEO auxiliary root no.  1 is converged.

 (SIRNEO) iteration (  7, 14)
 Micro iteration termination criterion met, EVAL(ISTATE+1) = -4.22D-05

   --- OUTPUT FROM SIRCNO     Keyword = FD+NO 


 Occupations of CAS natural orbitals:

 Symmetry  1 ( irrep A1  in C2v )

   1.999553134

 Symmetry  2 ( irrep B1  in C2v )

   1.999967392

 Symmetry  3 ( irrep B2  in C2v )

   1.263665836   0.782219574

 Symmetry  4 ( irrep A2  in C2v )

   1.964064741   1.948877955   0.041651368


 --- MACRO ITERATION  8 ---
 --------------------------

 2-el. integral transformation level 3: Total CPU and WALL times (sec)     118.812     124.030

 Fock matrix screening setting for this macro iteration: 10^( -9)

 Total MCSCF energy       :          -434.058596585300677  (MACRO    8)

 - Nuclear repulsion      :           412.135415267066946
 - Inactive energy        :          -827.825185539663948
 - Active energy          :           -18.368826312703700

 Norm of total gradient   :             0.012361726217
 -    of CI gradient      :             0.011807081108
 -    of orbital gradient :             0.003661299056
      Virial theorem: -V/T =      2.000442
@    MULPOP   C       1.85; C   _1  0.22; C   _2  0.22; C   _1  0.58; C   _2  0.58; C       0.25; N       0.50; O   _1 -1.05; O   _2 -1.05; H   _1 -0.42; 
@             H   _2 -0.42; H   _1 -0.42; H   _2 -0.42; H      -0.41; 

 Residual norm when dim(red L) =  10
 NEO root     CSF        orbital          total
    1     0.07439649     0.02965922     0.08009062 converged

 (NEONEX) NEO auxiliary root no.  1 is converged.

 Residual norm when dim(red L) =  16
 NEO root     CSF        orbital          total
    2     0.00127346     0.00101568     0.00162890 converged

 (NEONEX) NEO vector is converged.

   --- OUTPUT FROM SIRCNO     Keyword = FD+NO 


 Occupations of CAS natural orbitals:

 Symmetry  1 ( irrep A1  in C2v )

   1.999385603

 Symmetry  2 ( irrep B1  in C2v )

   1.999460402

 Symmetry  3 ( irrep B2  in C2v )

   1.262270837   0.783660721

 Symmetry  4 ( irrep A2  in C2v )

   1.964372303   1.949102574   0.041747559


 --- MACRO ITERATION  9 ---
 --------------------------

 2-el. integral transformation level 3: Total CPU and WALL times (sec)     118.750     123.552

 Fock matrix screening setting for this macro iteration: 10^( -9)

 Total MCSCF energy       :          -434.058899323991398  (MACRO    9)

 - Nuclear repulsion      :           412.135415267066946
 - Inactive energy        :          -827.717045342590609
 - Active energy          :           -18.477269248467721

 Norm of total gradient   :             0.009446379976
 -    of CI gradient      :             0.009281008197
 -    of orbital gradient :             0.001759824282
      Virial theorem: -V/T =      2.000437
@    MULPOP   C       1.86; C   _1  0.21; C   _2  0.21; C   _1  0.58; C   _2  0.58; C       0.25; N       0.49; O   _1 -1.05; O   _2 -1.05; H   _1 -0.42; 
@             H   _2 -0.42; H   _1 -0.42; H   _2 -0.42; H      -0.41; 

 Residual norm when dim(red L) =  10
 NEO root     CSF        orbital          total
    1     0.07985061     0.02717757     0.08434892 converged

 (NEONEX) NEO auxiliary root no.  1 is converged.

 Residual norm when dim(red L) =  18
 NEO root     CSF        orbital          total
    2     0.00146647     0.00100194     0.00177607 converged

 (NEONEX) NEO vector is converged.

   --- OUTPUT FROM SIRCNO     Keyword = FD+NO 


 Occupations of CAS natural orbitals:

 Symmetry  1 ( irrep A1  in C2v )

   1.999361004

 Symmetry  2 ( irrep B1  in C2v )

   1.998887429

 Symmetry  3 ( irrep B2  in C2v )

   1.263531379   0.782407485

 Symmetry  4 ( irrep A2  in C2v )

   1.964767971   1.949147649   0.041897083


 --- MACRO ITERATION 10 ---
 --------------------------

 2-el. integral transformation level 3: Total CPU and WALL times (sec)     120.500     127.358

 Fock matrix screening setting for this macro iteration: 10^( -9)

 Total MCSCF energy       :          -434.059055897930250  (MACRO   10)

 - Nuclear repulsion      :           412.135415267066946
 - Inactive energy        :          -828.160398826253868
[...]
      ----------------------------------------------------------------
         1    1.11637D+01  2.74D+00  1.08D+01  2.78D+02    0.00000D+00

 ** RSPCTL MICROITERATION NUMBER    4

 *** INFO, negative eigenvalues in reduced matrix. Symmetry  4,  triplet       F Dimension of reduced matrix =    10

 GP * SOLUTION vector at frequency     0.00000 a.u.
 after    5 linear transformations is      8.54804691D+03
 INERTIA (POS,ZER,NEG) of reduced matrix is    8    0    2
 Determinant of reduced matrix is  4.13 * 10 ** -8.0

       No.  Residual tot.,    conf., and orb.    Bnorm      Frequency 
      ----------------------------------------------------------------
         1    8.87192D+00  4.98D+00  7.34D+00  1.96D+02    0.00000D+00

 ** RSPCTL MICROITERATION NUMBER    5

 *** INFO, negative eigenvalues in reduced matrix. Symmetry  4,  triplet       F Dimension of reduced matrix =    12

 GP * SOLUTION vector at frequency     0.00000 a.u.
 after    6 linear transformations is      8.61391326D+03
 INERTIA (POS,ZER,NEG) of reduced matrix is   10    0    2
 Determinant of reduced matrix is  1.38 * 10 ** -9.0

       No.  Residual tot.,    conf., and orb.    Bnorm      Frequency 
      ----------------------------------------------------------------
         1    5.96163D+00  4.77D+00  3.58D+00  1.96D+02    0.00000D+00

 ** RSPCTL MICROITERATION NUMBER    6

 *** INFO, negative eigenvalues in reduced matrix. Symmetry  4,  triplet       F Dimension of reduced matrix =    14

 GP * SOLUTION vector at frequency     0.00000 a.u.
 after    7 linear transformations is      8.63231697D+03
 INERTIA (POS,ZER,NEG) of reduced matrix is   12    0    2
 Determinant of reduced matrix is  1.65 * 10 ** -9.0

       No.  Residual tot.,    conf., and orb.    Bnorm      Frequency 
      ----------------------------------------------------------------
         1    3.85491D+00  1.11D+00  3.69D+00  1.93D+02    0.00000D+00

 ** RSPCTL MICROITERATION NUMBER    7

 *** INFO, negative eigenvalues in reduced matrix. Symmetry  4,  triplet       F Dimension of reduced matrix =    16

 GP * SOLUTION vector at frequency     0.00000 a.u.
 after    8 linear transformations is      8.67944131D+03
 INERTIA (POS,ZER,NEG) of reduced matrix is   14    0    2
 Determinant of reduced matrix is  1.13 * 10 **-12.0

       No.  Residual tot.,    conf., and orb.    Bnorm      Frequency 
      ----------------------------------------------------------------
         1    6.10473D+00  1.75D+00  5.85D+00  2.03D+02    0.00000D+00

 ** RSPCTL MICROITERATION NUMBER    8

 *** INFO, negative eigenvalues in reduced matrix. Symmetry  4,  triplet       F Dimension of reduced matrix =    18

 GP * SOLUTION vector at frequency     0.00000 a.u.
 after    9 linear transformations is      8.81369072D+03
 INERTIA (POS,ZER,NEG) of reduced matrix is   16    0    2
 Determinant of reduced matrix is  5.55 * 10 **-16.0

       No.  Residual tot.,    conf., and orb.    Bnorm      Frequency 
      ----------------------------------------------------------------
         1    1.18578D+01  5.41D+00  1.06D+01  2.60D+02    0.00000D+00

 ** RSPCTL MICROITERATION NUMBER    9

 *** INFO, negative eigenvalues in reduced matrix. Symmetry  4,  triplet       F Dimension of reduced matrix =    20

 GP * SOLUTION vector at frequency     0.00000 a.u.
 after   10 linear transformations is      8.94299173D+03
 INERTIA (POS,ZER,NEG) of reduced matrix is   18    0    2
 Determinant of reduced matrix is  1.26 * 10 **-18.0

       No.  Residual tot.,    conf., and orb.    Bnorm      Frequency 
      ----------------------------------------------------------------
         1    1.14770D+01  9.86D+00  5.87D+00  3.68D+02    0.00000D+00

 ** RSPCTL MICROITERATION NUMBER   10

 *** INFO, negative eigenvalues in reduced matrix. Symmetry  4,  triplet       F Dimension of reduced matrix =    22

 GP * SOLUTION vector at frequency     0.00000 a.u.
 after   11 linear transformations is      9.36573726D+03
 INERTIA (POS,ZER,NEG) of reduced matrix is   20    0    2
 Determinant of reduced matrix is  7.25 * 10 **-20.0

       No.  Residual tot.,    conf., and orb.    Bnorm      Frequency 
      ----------------------------------------------------------------
         1    2.14968D+01  1.61D+00  2.14D+01  7.57D+02    0.00000D+00

 ** RSPCTL MICROITERATION NUMBER   11

 *** INFO, negative eigenvalues in reduced matrix. Symmetry  4,  triplet       F Dimension of reduced matrix =    24

 GP * SOLUTION vector at frequency     0.00000 a.u.
 after   12 linear transformations is      1.04145851D+04
 INERTIA (POS,ZER,NEG) of reduced matrix is   22    0    2
 Determinant of reduced matrix is  3.45 * 10 **-22.0

       No.  Residual tot.,    conf., and orb.    Bnorm      Frequency 
      ----------------------------------------------------------------
         1    3.69034D+01  7.25D+00  3.62D+01  1.88D+03    0.00000D+00

 ** RSPCTL MICROITERATION NUMBER   12

 *** INFO, negative eigenvalues in reduced matrix. Symmetry  4,  triplet       F Dimension of reduced matrix =    26

 GP * SOLUTION vector at frequency     0.00000 a.u.
 after   13 linear transformations is      1.14368502D+04
 INERTIA (POS,ZER,NEG) of reduced matrix is   24    0    2
 Determinant of reduced matrix is  3.20 * 10 **-24.0

       No.  Residual tot.,    conf., and orb.    Bnorm      Frequency 
      ----------------------------------------------------------------
         1    2.17706D+01  1.28D+01  1.76D+01  3.01D+03    0.00000D+00

 ** RSPCTL MICROITERATION NUMBER   13

 *** INFO, negative eigenvalues in reduced matrix. Symmetry  4,  triplet       F Dimension of reduced matrix =    28

 GP * SOLUTION vector at frequency     0.00000 a.u.
 after   14 linear transformations is      1.16398146D+04
 INERTIA (POS,ZER,NEG) of reduced matrix is   26    0    2
 Determinant of reduced matrix is  1.14 * 10 **-25.0

       No.  Residual tot.,    conf., and orb.    Bnorm      Frequency 
      ----------------------------------------------------------------
         1    1.48636D+01  1.32D+01  6.82D+00  3.22D+03    0.00000D+00

 ** RSPCTL MICROITERATION NUMBER   14

 *** INFO, negative eigenvalues in reduced matrix. Symmetry  4,  triplet       F Dimension of reduced matrix =    30

 GP * SOLUTION vector at frequency     0.00000 a.u.
 after   15 linear transformations is      1.18260425D+04
 INERTIA (POS,ZER,NEG) of reduced matrix is   28    0    2
 Determinant of reduced matrix is  9.02 * 10 **-26.0

       No.  Residual tot.,    conf., and orb.    Bnorm      Frequency 
      ----------------------------------------------------------------
         1    8.65955D+00  1.21D+00  8.57D+00  3.43D+03    0.00000D+00

 ** RSPCTL MICROITERATION NUMBER   15

 *** INFO, negative eigenvalues in reduced matrix. Symmetry  4,  triplet       F Dimension of reduced matrix =    32

 GP * SOLUTION vector at frequency     0.00000 a.u.
 after   16 linear transformations is      1.18972056D+04
 INERTIA (POS,ZER,NEG) of reduced matrix is   30    0    2
 Determinant of reduced matrix is  9.75 * 10 **-29.0

       No.  Residual tot.,    conf., and orb.    Bnorm      Frequency 
      ----------------------------------------------------------------
         1    4.81849D+00  3.70D+00  3.09D+00  3.53D+03    0.00000D+00

 ** RSPCTL MICROITERATION NUMBER   16

 *** INFO, negative eigenvalues in reduced matrix. Symmetry  4,  triplet       F Dimension of reduced matrix =    34

 GP * SOLUTION vector at frequency     0.00000 a.u.
 after   17 linear transformations is      1.19124952D+04
 INERTIA (POS,ZER,NEG) of reduced matrix is   32    0    2
 Determinant of reduced matrix is  6.23 * 10 **-29.0

       No.  Residual tot.,    conf., and orb.    Bnorm      Frequency 
      ----------------------------------------------------------------
         1    5.60426D+00  1.24D+00  5.47D+00  3.55D+03    0.00000D+00

 ** RSPCTL MICROITERATION NUMBER   17

 *** INFO, negative eigenvalues in reduced matrix. Symmetry  4,  triplet       F Dimension of reduced matrix =    36

 GP * SOLUTION vector at frequency     0.00000 a.u.
 after   18 linear transformations is      1.19263182D+04
 INERTIA (POS,ZER,NEG) of reduced matrix is   34    0    2
 Determinant of reduced matrix is  6.87 * 10 **-31.0

       No.  Residual tot.,    conf., and orb.    Bnorm      Frequency 
      ----------------------------------------------------------------
         1    2.27357D+00  1.85D+00  1.33D+00  3.58D+03    0.00000D+00

 *** THE REQUESTED    1 SOLUTION VECTORS CONVERGED

 Convergence of RSP solution vectors, threshold = 1.00D-03
 ---------------------------------------------------------------
 (dimension of paired reduced space:   36)
 RSP solution vector no.    1; norm of residual   6.35D-04

 *** RSPCTL MICROITERATIONS CONVERGED
    XDIPLEN     YDIPLEN      freq1     freq2                Norm
 ---------------------------------------------------------------
                          0.054400 -0.054400       3578.78018918
  Time used in CRVEC2     is       4 hours 47 minutes 57 seconds


 ----- CALCULATING CONTRIBUTIONS TO SECOND HYPERPOLARIZABILITY -----


   Contribution                Term         Accumulated
 ------------------------------------------------------
 Na T[4] Nb Nc Nd261409761.66738993  261409761.66738993
 Na T[3] Nx Nyz -628332979.91310370 -366923218.24571371
 Na X[3] Ny Nz    24043822.13043672 -342879396.11527699
 Nx A[3] Ny Nz     8014607.37681224 -334864788.73846471
 Na X[2] Nyz     -24250073.41857298 -359114862.15703768
 Nx A[2] Nyz     -24800140.88913070 -383915003.04616839

@ Cubic response function value in a.u. for
@ A operator, symmetry, frequency:   ZDIPLEN    1 -0.054400
@ B operator, symmetry, frequency:   ZDIPLEN    1  0.054400
@ C operator, symmetry, frequency:   ZDIPLEN    1  0.054400
@ D operator, symmetry, frequency:   ZDIPLEN    1 -0.054400

@ << A; B, C, D >>  =  -383915003.04616839



   Contribution                Term         Accumulated
 ------------------------------------------------------
 Na T[4] Nb Nc Nd  1893826.60155713    1893826.60155713
 Na T[3] Nx Nyz   -4631252.27902595   -2737425.67746882
 Na X[3] Ny Nz      100213.62258232   -2637212.05488650
 Nx A[3] Ny Nz      220203.57120296   -2417008.48368354
 Na X[2] Nyz       1036652.43076241   -1380356.05292113
 Nx A[2] Nyz       4413693.94333885    3033337.89041772

@ Cubic response function value in a.u. for
@ A operator, symmetry, frequency:   XDIPLEN    2 -0.054400
@ B operator, symmetry, frequency:   XDIPLEN    2  0.054400
@ C operator, symmetry, frequency:   ZDIPLEN    1  0.054400
@ D operator, symmetry, frequency:   ZDIPLEN    1 -0.054400

@ << A; B, C, D >>  =     3033337.89041772



   Contribution                Term         Accumulated
 ------------------------------------------------------
 Na T[4] Nb Nc Nd   -79787.02755589     -79787.02755589
 Na T[3] Nx Nyz     -21456.91283567    -101243.94039155
 Na X[3] Ny Nz      126581.41780591      25337.47741436
 Nx A[3] Ny Nz       62652.76665673      87990.24407109
 Na X[2] Nyz         62780.69481030     150770.93888139
 Nx A[2] Nyz        -10362.41026515     140408.52861624

@ Cubic response function value in a.u. for
@ A operator, symmetry, frequency:   YDIPLEN    3 -0.054400
@ B operator, symmetry, frequency:   YDIPLEN    3  0.054400
@ C operator, symmetry, frequency:   ZDIPLEN    1  0.054400
@ D operator, symmetry, frequency:   ZDIPLEN    1 -0.054400

@ << A; B, C, D >>  =      140408.52861624



   Contribution                Term         Accumulated
 ------------------------------------------------------
 Na T[4] Nb Nc Nd -1855612.93287535   -1855612.93287535
 Na T[3] Nx Nyz   -9473498.06051598  -11329110.99339133
 Na X[3] Ny Nz      618938.63791162  -10710172.35547970
 Nx A[3] Ny Nz       19794.40238991  -10690377.95308979
 Na X[2] Nyz      16637371.46795509    5946993.51486530
 Nx A[2] Nyz       3422815.60260524    9369809.11747054

@ Cubic response function value in a.u. for
@ A operator, symmetry, frequency:   ZDIPLEN    1 -0.054400
@ B operator, symmetry, frequency:   XDIPLEN    2  0.054400
@ C operator, symmetry, frequency:   XDIPLEN    2  0.054400
@ D operator, symmetry, frequency:   ZDIPLEN    1 -0.054400

@ << A; B, C, D >>  =     9369809.11747054



   Contribution                Term         Accumulated
 ------------------------------------------------------
 Na T[4] Nb Nc Nd   -24035.60348338     -24035.60348338
 Na T[3] Nx Nyz     -35261.64585393     -59297.24933731
 Na X[3] Ny Nz       49450.82889045      -9846.42044686
 Nx A[3] Ny Nz        -405.31098026     -10251.73142711
 Na X[2] Nyz        -72621.45426858     -82873.18569569
 Nx A[2] Nyz        -19318.20309200    -102191.38878770

@ Cubic response function value in a.u. for
@ A operator, symmetry, frequency:   ZDIPLEN    1 -0.054400
@ B operator, symmetry, frequency:   YDIPLEN    3  0.054400
@ C operator, symmetry, frequency:   YDIPLEN    3  0.054400
@ D operator, symmetry, frequency:   ZDIPLEN    1 -0.054400

@ << A; B, C, D >>  =     -102191.38878770



   Contribution                Term         Accumulated
 ------------------------------------------------------
 Na T[4] Nb Nc Nd -1074890.64311270   -1074890.64311270
 Na T[3] Nx Nyz   -6306707.00376525   -7381597.64687795
 Na X[3] Ny Nz      137572.43275279   -7244025.21412516
 Nx A[3] Ny Nz      232375.95449822   -7011649.25962694
 Na X[2] Nyz       3878731.09242372   -3132918.16720322
 Nx A[2] Nyz      12535270.75556648    9402352.58836326

@ Cubic response function value in a.u. for
@ A operator, symmetry, frequency:   XDIPLEN    2 -0.054400
@ B operator, symmetry, frequency:   ZDIPLEN    1  0.054400
@ C operator, symmetry, frequency:   ZDIPLEN    1  0.054400
@ D operator, symmetry, frequency:   XDIPLEN    2 -0.054400

@ << A; B, C, D >>  =     9402352.58836326



   Contribution                Term         Accumulated
 ------------------------------------------------------
 Na T[4] Nb Nc Nd   616897.90435676     616897.90435676
 Na T[3] Nx Nyz    -498624.42056767     118273.48378909
 Na X[3] Ny Nz       77800.08728457     196073.57107366
 Nx A[3] Ny Nz       25933.36242819     222006.93350185
 Na X[2] Nyz        -34002.29484069     188004.63866116
 Nx A[2] Nyz        -43633.35310993     144371.28555123

@ Cubic response function value in a.u. for
@ A operator, symmetry, frequency:   XDIPLEN    2 -0.054400
@ B operator, symmetry, frequency:   XDIPLEN    2  0.054400
@ C operator, symmetry, frequency:   XDIPLEN    2  0.054400
@ D operator, symmetry, frequency:   XDIPLEN    2 -0.054400

@ << A; B, C, D >>  =      144371.28555123



   Contribution                Term         Accumulated
 ------------------------------------------------------
 Na T[4] Nb Nc Nd    -4343.74295199      -4343.74295199
 Na T[3] Nx Nyz       2170.23672268      -2173.50622931
 Na X[3] Ny Nz        8119.93492267       5946.42869336
 Nx A[3] Ny Nz        2134.68512558       8081.11381894
 Na X[2] Nyz        -14442.33435246      -6361.22053352
 Nx A[2] Nyz        -23896.57719301     -30257.79772653

@ Cubic response function value in a.u. for
@ A operator, symmetry, frequency:   YDIPLEN    3 -0.054400
@ B operator, symmetry, frequency:   YDIPLEN    3  0.054400
@ C operator, symmetry, frequency:   XDIPLEN    2  0.054400
@ D operator, symmetry, frequency:   XDIPLEN    2 -0.054400

@ << A; B, C, D >>  =      -30257.79772653



   Contribution                Term         Accumulated
 ------------------------------------------------------
 Na T[4] Nb Nc Nd      451.41778339        451.41778339
 Na T[3] Nx Nyz      16183.56957002      16634.98735341
 Na X[3] Ny Nz       -2112.99361681      14521.99373660
 Nx A[3] Ny Nz         286.64858892      14808.64232552
 Na X[2] Nyz        -20687.24318063      -5878.60085512
 Nx A[2] Nyz        -13142.09510557     -19020.69596069

@ Cubic response function value in a.u. for
@ A operator, symmetry, frequency:   XDIPLEN    2 -0.054400
@ B operator, symmetry, frequency:   YDIPLEN    3  0.054400
@ C operator, symmetry, frequency:   YDIPLEN    3  0.054400
@ D operator, symmetry, frequency:   XDIPLEN    2 -0.054400

@ << A; B, C, D >>  =      -19020.69596069



   Contribution                Term         Accumulated
 ------------------------------------------------------
 Na T[4] Nb Nc Nd   -62482.57031151     -62482.57031151
 Na T[3] Nx Nyz      17813.72316088     -44668.84715064
 Na X[3] Ny Nz      102770.92172562      58102.07457498
 Nx A[3] Ny Nz       51145.89451895     109247.96909393
 Na X[2] Nyz        -62082.38651878      47165.58257514
 Nx A[2] Nyz       -153839.27222144    -106673.68964630

@ Cubic response function value in a.u. for
@ A operator, symmetry, frequency:   YDIPLEN    3 -0.054400
@ B operator, symmetry, frequency:   ZDIPLEN    1  0.054400
@ C operator, symmetry, frequency:   ZDIPLEN    1  0.054400
@ D operator, symmetry, frequency:   YDIPLEN    3 -0.054400

@ << A; B, C, D >>  =     -106673.68964630



   Contribution                Term         Accumulated
 ------------------------------------------------------
 Na T[4] Nb Nc Nd     3930.75158919       3930.75158919
 Na T[3] Nx Nyz       7781.67077992      11712.42236910
 Na X[3] Ny Nz       -7585.94738436       4126.47498475
 Nx A[3] Ny Nz       -3519.62892264        606.84606211
 Na X[2] Nyz         -7107.46929477      -6500.62323266
 Nx A[2] Nyz        -12509.60830196     -19010.23153462

@ Cubic response function value in a.u. for
@ A operator, symmetry, frequency:   YDIPLEN    3 -0.054400
@ B operator, symmetry, frequency:   XDIPLEN    2  0.054400
@ C operator, symmetry, frequency:   XDIPLEN    2  0.054400
@ D operator, symmetry, frequency:   YDIPLEN    3 -0.054400

@ << A; B, C, D >>  =      -19010.23153462



   Contribution                Term         Accumulated
 ------------------------------------------------------
 Na T[4] Nb Nc Nd     -555.71860478       -555.71860478
 Na T[3] Nx Nyz       5936.23315197       5380.51454719
 Na X[3] Ny Nz        2434.13046498       7814.64501217
 Nx A[3] Ny Nz         811.37682166       8626.02183383
 Na X[2] Nyz        -22889.57753002     -14263.55569619
 Nx A[2] Nyz        -23000.23154227     -37263.78723846

@ Cubic response function value in a.u. for
@ A operator, symmetry, frequency:   YDIPLEN    3 -0.054400
@ B operator, symmetry, frequency:   YDIPLEN    3  0.054400
@ C operator, symmetry, frequency:   YDIPLEN    3  0.054400
@ D operator, symmetry, frequency:   YDIPLEN    3 -0.054400

@ << A; B, C, D >>  =      -37263.78723846



  Summary of gamma values for a set of frequencies
 -------------------------------------------------

@ B-freq:  0.054400
@ C-freq:  0.054400
@ D-freq: -0.054400

@ gamma(X;X,X,X)    -144371.2856
@ gamma(X;X,Y,Y)      30257.7977
@ gamma(X;Y,Y,X)      19020.6960
@ gamma(X;Y,X,Y)      30257.7977
@ gamma(X;X,Z,Z)   -3033337.8904
@ gamma(X;Z,Z,X)   -9402352.5884
@ gamma(X;Z,X,Z)   -3033337.8904
@ gamma(Y;Y,X,X)      30257.7977
@ gamma(Y;X,X,Y)      19010.2315
@ gamma(Y;X,Y,X)      30257.7977
@ gamma(Y;Y,Y,Y)      37263.7872
@ gamma(Y;Y,Z,Z)    -140408.5286
@ gamma(Y;Z,Z,Y)     106673.6896
@ gamma(Y;Z,Y,Z)    -140408.5286
@ gamma(Z;Z,X,X)   -3033337.8904
@ gamma(Z;X,X,Z)   -9369809.1175
@ gamma(Z;X,Z,X)   -3033337.8904
@ gamma(Z;Z,Y,Y)    -140408.5286
@ gamma(Z;Y,Y,Z)     102191.3888
@ gamma(Z;Y,Z,Y)    -140408.5286
@ gamma(Z;Z,Z,Z)  383915003.0462

@ Averaged gamma parallel to the applied field is  74688297.763896

  Total CPU  time used in RESPONSE:  19 hours 21 minutes  6 seconds
  Total wall time used in RESPONSE:  19 hours 42 minutes 19 seconds


                   .-------------------------------------------.
                   | End of Dynamic Property Section (RESPONS) |
                   `-------------------------------------------'

  Total CPU  time used in DALTON:  22 hours 18 minutes 15 seconds
  Total wall time used in DALTON:  22 hours 49 minutes 10 seconds

 
     Date and time (Linux)  : Sat Mar 28 13:19:24 2020
     Host name              : Mechanist                               
