

     ************************************************************************
     *************** Dalton - An Electronic Structure Program ***************
     ************************************************************************

    This is output from DALTON release Dalton2018.2 (2019)
         ( Web site: http://daltonprogram.org )

   ----------------------------------------------------------------------------

    NOTE:
     
    Dalton is an experimental code for the evaluation of molecular
    properties using (MC)SCF, DFT, CI, and CC wave functions.
    The authors accept no responsibility for the performance of
    the code or for the correctness of the results.
     
    The code (in whole or part) is provided under a licence and
    is not to be reproduced for further distribution without
    the written permission of the authors or their representatives.
     
    See the home page "http://daltonprogram.org" for further information.
     
    If results obtained with this code are published,
    the appropriate citations would be both of:
     
       K. Aidas, C. Angeli, K. L. Bak, V. Bakken, R. Bast,
       L. Boman, O. Christiansen, R. Cimiraglia, S. Coriani,
       P. Dahle, E. K. Dalskov, U. Ekstroem,
       T. Enevoldsen, J. J. Eriksen, P. Ettenhuber, B. Fernandez,
       L. Ferrighi, H. Fliegl, L. Frediani, K. Hald, A. Halkier,
       C. Haettig, H. Heiberg, T. Helgaker, A. C. Hennum,
       H. Hettema, E. Hjertenaes, S. Hoest, I.-M. Hoeyvik,
       M. F. Iozzi, B. Jansik, H. J. Aa. Jensen, D. Jonsson,
       P. Joergensen, J. Kauczor, S. Kirpekar,
       T. Kjaergaard, W. Klopper, S. Knecht, R. Kobayashi, H. Koch,
       J. Kongsted, A. Krapp, K. Kristensen, A. Ligabue,
       O. B. Lutnaes, J. I. Melo, K. V. Mikkelsen, R. H. Myhre,
       C. Neiss, C. B. Nielsen, P. Norman, J. Olsen,
       J. M. H. Olsen, A. Osted, M. J. Packer, F. Pawlowski,
       T. B. Pedersen, P. F. Provasi, S. Reine, Z. Rinkevicius,
       T. A. Ruden, K. Ruud, V. Rybkin, P. Salek, C. C. M. Samson,
       A. Sanchez de Meras, T. Saue, S. P. A. Sauer,
       B. Schimmelpfennig, K. Sneskov, A. H. Steindal,
       K. O. Sylvester-Hvid, P. R. Taylor, A. M. Teale,
       E. I. Tellgren, D. P. Tew, A. J. Thorvaldsen, L. Thoegersen,
       O. Vahtras, M. A. Watson, D. J. D. Wilson, M. Ziolkowski
       and H. Agren,
       "The Dalton quantum chemistry program system",
       WIREs Comput. Mol. Sci. 2014, 4:269–284 (doi: 10.1002/wcms.1172)
     
    and
     
       Dalton, a molecular electronic structure program,
       Release Dalton2018.2 (2019), see http://daltonprogram.org
   ----------------------------------------------------------------------------

    Authors in alphabetical order (major contribution(s) in parenthesis):

  Kestutis Aidas,           Vilnius University,           Lithuania   (QM/MM)
  Celestino Angeli,         University of Ferrara,        Italy       (NEVPT2)
  Keld L. Bak,              UNI-C,                        Denmark     (AOSOPPA, non-adiabatic coupling, magnetic properties)
  Vebjoern Bakken,          University of Oslo,           Norway      (DALTON; geometry optimizer, symmetry detection)
  Radovan Bast,             UiT The Arctic U. of Norway,  Norway      (DALTON installation and execution frameworks)
  Pablo Baudin,             University of Valencia,       Spain       (Cholesky excitation energies)
  Linus Boman,              NTNU,                         Norway      (Cholesky decomposition and subsystems)
  Ove Christiansen,         Aarhus University,            Denmark     (CC module)
  Renzo Cimiraglia,         University of Ferrara,        Italy       (NEVPT2)
  Sonia Coriani,            Technical Univ. of Denmark,   Denmark     (CC module, MCD in RESPONS)
  Janusz Cukras,            University of Trieste,        Italy       (MChD in RESPONS)
  Paal Dahle,               University of Oslo,           Norway      (Parallelization)
  Erik K. Dalskov,          UNI-C,                        Denmark     (SOPPA)
  Thomas Enevoldsen,        Univ. of Southern Denmark,    Denmark     (SOPPA)
  Janus J. Eriksen,         Aarhus University,            Denmark     (Polarizable embedding model, TDA)
  Rasmus Faber,             University of Copenhagen,     Denmark     (Vib.avg. NMR with SOPPA, parallel AO-SOPPA)
  Tobias Fahleson,          KTH Stockholm,                Sweden      (Damped cubic response)
  Berta Fernandez,          U. of Santiago de Compostela, Spain       (doublet spin, ESR in RESPONS)
  Lara Ferrighi,            Aarhus University,            Denmark     (PCM Cubic response)
  Heike Fliegl,             University of Oslo,           Norway      (CCSD(R12))
  Luca Frediani,            UiT The Arctic U. of Norway,  Norway      (PCM)
  Bin Gao,                  UiT The Arctic U. of Norway,  Norway      (Gen1Int library)
  Christof Haettig,         Ruhr-University Bochum,       Germany     (CC module)
  Kasper Hald,              Aarhus University,            Denmark     (CC module)
  Asger Halkier,            Aarhus University,            Denmark     (CC module)
  Frederik Beyer Hansen,    University of Copenhagen,     Denmark     (Parallel AO-SOPPA)
  Erik D. Hedegaard,        Univ. of Southern Denmark,    Denmark     (Polarizable embedding model, QM/MM)
  Hanne Heiberg,            University of Oslo,           Norway      (geometry analysis, selected one-electron integrals)
  Trygve Helgaker,          University of Oslo,           Norway      (DALTON; ABACUS, ERI, DFT modules, London, and much more)
  Alf Christian Hennum,     University of Oslo,           Norway      (Parity violation)
  Hinne Hettema,            University of Auckland,       New Zealand (quadratic response in RESPONS; SIRIUS supersymmetry)
  Eirik Hjertenaes,         NTNU,                         Norway      (Cholesky decomposition)
  Pi A. B. Haase,           University of Copenhagen,     Denmark     (Triplet AO-SOPPA)
  Maria Francesca Iozzi,    University of Oslo,           Norway      (RPA)
  Christoph Jacob           TU Braunschweig               Germany     (Frozen density embedding model)
  Brano Jansik              Technical Univ. of Ostrava    Czech Rep.  (DFT cubic response)
  Hans Joergen Aa. Jensen,  Univ. of Southern Denmark,    Denmark     (DALTON; SIRIUS, RESPONS, ABACUS modules, London, and much more)
  Dan Jonsson,              UiT The Arctic U. of Norway,  Norway      (cubic response in RESPONS module)
  Poul Joergensen,          Aarhus University,            Denmark     (RESPONS, ABACUS, and CC modules)
  Maciej Kaminski,          University of Warsaw,         Poland      (CPPh in RESPONS)
  Joanna Kauczor,           Linkoeping University,        Sweden      (Complex polarization propagator (CPP) module)
  Sheela Kirpekar,          Univ. of Southern Denmark,    Denmark     (Mass-velocity & Darwin integrals)
  Wim Klopper,              KIT Karlsruhe,                Germany     (R12 code in CC, SIRIUS, and ABACUS modules)
  Stefan Knecht,            ETH Zurich,                   Switzerland (Parallel CI and MCSCF)
  Rika Kobayashi,           Australian National Univ.,    Australia   (DIIS in CC, London in MCSCF)
  Henrik Koch,              NTNU,                         Norway      (CC module, Cholesky decomposition)
  Jacob Kongsted,           Univ. of Southern Denmark,    Denmark     (Polarizable embedding model, QM/MM)
  Andrea Ligabue,           University of Modena,         Italy       (CTOCD, AOSOPPA)
  Nanna H. List             Univ. of Southern Denmark,    Denmark     (Polarizable embedding model)
  Ola B. Lutnaes,           University of Oslo,           Norway      (DFT Hessian)
  Juan I. Melo,             University of Buenos Aires,   Argentina   (LRESC, Relativistic Effects on NMR Shieldings)
  Kurt V. Mikkelsen,        University of Copenhagen,     Denmark     (MC-SCRF and QM/MM)
  Rolf H. Myhre,            NTNU,                         Norway      (Subsystems and CC3)
  Christian Neiss,          Univ. Erlangen-Nuernberg,     Germany     (CCSD(R12))
  Christian B. Nielsen,     University of Copenhagen,     Denmark     (QM/MM)
  Patrick Norman,           KTH Stockholm,                Sweden      (Cubic response and complex frequency response in RESPONS)
  Jeppe Olsen,              Aarhus University,            Denmark     (SIRIUS CI/density modules)
  Jogvan Magnus H. Olsen,   Univ. of Southern Denmark,    Denmark     (Polarizable embedding model, QM/MM)
  Anders Osted,             Copenhagen University,        Denmark     (QM/MM)
  Martin J. Packer,         University of Sheffield,      UK          (SOPPA)
  Filip Pawlowski,          Kazimierz Wielki University,  Poland      (CC3)
  Morten N. Pedersen,       Univ. of Southern Denmark,    Denmark     (Polarizable embedding model)
  Thomas B. Pedersen,       University of Oslo,           Norway      (Cholesky decomposition)
  Patricio F. Provasi,      University of Northeastern,   Argentina   (Analysis of coupling constants in localized orbitals)
  Zilvinas Rinkevicius,     KTH Stockholm,                Sweden      (open-shell DFT, ESR)
  Elias Rudberg,            KTH Stockholm,                Sweden      (DFT grid and basis info)
  Torgeir A. Ruden,         University of Oslo,           Norway      (Numerical derivatives in ABACUS)
  Kenneth Ruud,             UiT The Arctic U. of Norway,  Norway      (DALTON; ABACUS magnetic properties and much more)
  Pawel Salek,              KTH Stockholm,                Sweden      (DALTON; DFT code)
  Claire C. M. Samson       University of Karlsruhe       Germany     (Boys localization, r12 integrals in ERI)
  Alfredo Sanchez de Meras, University of Valencia,       Spain       (CC module, Cholesky decomposition)
  Trond Saue,               Paul Sabatier University,     France      (direct Fock matrix construction)
  Stephan P. A. Sauer,      University of Copenhagen,     Denmark     (SOPPA(CCSD), SOPPA prop., AOSOPPA, vibrational g-factors)
  Andre S. P. Gomes,        CNRS/Universite de Lille,     France      (Frozen density embedding model)
  Bernd Schimmelpfennig,    Forschungszentrum Karlsruhe,  Germany     (AMFI module)
  Kristian Sneskov,         Aarhus University,            Denmark     (Polarizable embedding model, QM/MM)
  Arnfinn H. Steindal,      UiT The Arctic U. of Norway,  Norway      (parallel QM/MM, Polarizable embedding model)
  Casper Steinmann,         Univ. of Southern Denmark,    Denmark     (QFIT, Polarizable embedding model)
  K. O. Sylvester-Hvid,     University of Copenhagen,     Denmark     (MC-SCRF)
  Peter R. Taylor,          VLSCI/Univ. of Melbourne,     Australia   (Symmetry handling ABACUS, integral transformation)
  Andrew M. Teale,          University of Nottingham,     England     (DFT-AC, DFT-D)
  David P. Tew,             University of Bristol,        England     (CCSD(R12))
  Olav Vahtras,             KTH Stockholm,                Sweden      (triplet response, spin-orbit, ESR, TDDFT, open-shell DFT)
  Lucas Visscher,           Vrije Universiteit Amsterdam, Netherlands (Frozen density embedding model)
  David J. Wilson,          La Trobe University,          Australia   (DFT Hessian and DFT magnetizabilities)
  Hans Agren,               KTH Stockholm,                Sweden      (SIRIUS module, RESPONS, MC-SCRF solvation model)
 --------------------------------------------------------------------------------

     Date and time (Linux)  : Sat Apr 11 17:32:15 2020
     Host name              : n0233.lr3                               

 * Work memory size             :  2048000000 = 15.259 gigabytes.

 * Directories for basis set searches:
   1) /global/home/users/rthurston/dalton/build_2018_intel_openmpi_mkl
   2) /global/home/users/rthurston/dalton/build_2018_intel_openmpi_mkl/basis


Compilation information
-----------------------

 Who compiled             | rthurston
 Host                     | n0188.lr3
 System                   | Linux-3.10.0-693.11.6.el7.x86_64
 CMake generator          | Unix Makefiles
 Processor                | x86_64
 64-bit integers          | OFF
 MPI                      | ON
 Fortran compiler         | /global/software/sl-7.x86_64/modules/intel/2016.4.
                          | 072/openmpi/2.0.2-intel/bin/mpif90
 Fortran compiler version | ifort (IFORT) 16.0.4 20160811
 C compiler               | /global/software/sl-7.x86_64/modules/intel/2016.4.
                          | 072/openmpi/2.0.2-intel/bin/mpicc
 C compiler version       | icc (ICC) 16.0.4 20160811
 C++ compiler             | /global/software/sl-7.x86_64/modules/intel/2016.4.
                          | 072/openmpi/2.0.2-intel/bin/mpicxx
 C++ compiler version     | unknown
 BLAS                     | /global/software/sl-7.x86_64/modules/langs/intel/2
                          | 016.4.072/mkl/lib/intel64/libmkl_intel_lp64.so;/gl
                          | obal/software/sl-7.x86_64/modules/langs/intel/2016
                          | .4.072/mkl/lib/intel64/libmkl_sequential.so;/globa
                          | l/software/sl-7.x86_64/modules/langs/intel/2016.4.
                          | 072/mkl/lib/intel64/libmkl_core.so;/usr/lib64/libp
                          | thread.so;/usr/lib64/libm.so
 LAPACK                   | /global/software/sl-7.x86_64/modules/langs/intel/2
                          | 016.4.072/mkl/lib/intel64/libmkl_lapack95_lp64.a;/
                          | global/software/sl-7.x86_64/modules/langs/intel/20
                          | 16.4.072/mkl/lib/intel64/libmkl_intel_lp64.so
 Static linking           | OFF
 Last Git revision        | 8eef5460b34c29e4fd87d4a660b0b7c4cfb07f58
 Git branch               | release/2018
 Configuration time       | 2020-04-11 02:09:28.011781

 * MPI parallel run using 8 processes.


   Content of the .dal input file
 ----------------------------------

**DALTON INPUT
.RUN RESPONSE
.DIRECT
**WAVE FUNCTIONS
.HF
.MP2
.MCSCF
*CONFIGURATION INPUT
.SPIN MULTIPLICITY
1
.SYMMETRY
1
.INACTIVE ORBITALS
15 10 2 0
.CAS SPACE
1 1 2 3
.ELECTRONS
10
*ORBITAL INPUT
.MOSTART
.HUCKEL
*OPTIMIZATION
.DETERMINANTS
.STATE
1
*CI VECTOR
.PLUS COMBINATIONS
**RESPONSE
*CUBIC
.MAX IT
120
.DIPLEN
.BFREQ
1
-0.2336582357116
.CFREQ
1
0.2336582357116
.DFREQ
1
0.2336582357116
**END OF DALTON INPUT


   Content of the .mol file
 ----------------------------

BASIS
aug-cc-pCVDZ
 nitrobenzene
 Generated by the Dalton Input File Plugin for Avogadro
Atomtypes=4 Angstrom Generators=2 X Y
Charge=6.0 Atoms=4
C        0.0000000000            0.0000000000           -0.0265759623
C       -1.2190534920            0.0000000000           -0.6979856948
C       -1.2105095870            0.0000000000           -2.0897394457
C        0.0000000000            0.0000000000           -2.7841484631
Charge=7.0 Atoms=1
N        0.0000000000            0.0000000000            1.4549291696
Charge=8.0 Atoms=1
O       1.0847503743            0.0            2.0235779798
Charge=1.0 Atoms=3
H       -2.1410602955            0.0000000000           -0.1327964319
H       -2.1492827751            0.0000000000           -2.6311811056
H        0.0000000000            0.0000000000           -3.8683953478


       *******************************************************************
       *********** Output from DALTON general input processing ***********
       *******************************************************************

 --------------------------------------------------------------------------------
   Overall default print level:    0
   Print level for DALTON.STAT:    1

    Parallel calculation using MPI
    AO-direct calculation (in sections where implemented)
    HERMIT 1- and 2-electron integral sections will be executed
    "Old" integral transformation used (limited to max 255 basis functions)
    Wave function sections will be executed (SIRIUS module)
    Dynamic molecular response properties section will be executed (RESPONSE module)
 --------------------------------------------------------------------------------


   ****************************************************************************
   *************** Output of molecule and basis set information ***************
   ****************************************************************************


    The two title cards from your ".mol" input:
    ------------------------------------------------------------------------
 1:  nitrobenzene                                                           
 2:  Generated by the Dalton Input File Plugin for Avogadro                 
    ------------------------------------------------------------------------

  Coordinates are entered in Angstrom and converted to atomic units.
          - Conversion factor : 1 bohr = 0.52917721 A

  Atomic type no.    1
  --------------------
  Nuclear charge:   6.00000
  Number of symmetry independent centers:    4
  Number of basis sets to read;    2
  Basis set file used for this atomic type with Z =   6 :
     "/global/home/users/rthurston/dalton/build_2018_intel_openmpi_mkl/basis/aug-cc-pCVDZ"

  Atomic type no.    2
  --------------------
  Nuclear charge:   7.00000
  Number of symmetry independent centers:    1
  Number of basis sets to read;    2
  Basis set file used for this atomic type with Z =   7 :
     "/global/home/users/rthurston/dalton/build_2018_intel_openmpi_mkl/basis/aug-cc-pCVDZ"

  Atomic type no.    3
  --------------------
  Nuclear charge:   8.00000
  Number of symmetry independent centers:    1
  Number of basis sets to read;    2
  Basis set file used for this atomic type with Z =   8 :
     "/global/home/users/rthurston/dalton/build_2018_intel_openmpi_mkl/basis/aug-cc-pCVDZ"

  Atomic type no.    4
  --------------------
  Nuclear charge:   1.00000
  Number of symmetry independent centers:    3
  Number of basis sets to read;    2
  Basis set file used for this atomic type with Z =   1 :
     "/global/home/users/rthurston/dalton/build_2018_intel_openmpi_mkl/basis/aug-cc-pCVDZ"


                         SYMGRP: Point group information
                         -------------------------------

@    Point group: C2v

@  * The irrep name for each symmetry:    1: A1     2: B1     3: B2     4: A2 

   * The point group was generated by:

      Reflection in the yz-plane
      Reflection in the xz-plane

   * Group multiplication table

        |  E   C2z  Oxz  Oyz
   -----+--------------------
     E  |  E   C2z  Oxz  Oyz
    C2z | C2z   E   Oyz  Oxz
    Oxz | Oxz  Oyz   E   C2z
    Oyz | Oyz  Oxz  C2z   E 

   * Character table

        |  E   C2z  Oxz  Oyz
   -----+--------------------
    A1  |   1    1    1    1
    B1  |   1   -1    1   -1
    B2  |   1   -1   -1    1
    A2  |   1    1   -1   -1

   * Direct product table

        | A1   B1   B2   A2 
   -----+--------------------
    A1  | A1   B1   B2   A2 
    B1  | B1   A1   A2   B2 
    B2  | B2   A2   A1   B1 
    A2  | A2   B2   B1   A1 


                                 Isotopic Masses
                                 ---------------

                           C          12.000000
                           C   _1     12.000000
                           C   _2     12.000000
                           C   _1     12.000000
                           C   _2     12.000000
                           C          12.000000
                           N          14.003074
                           O   _1     15.994915
                           O   _2     15.994915
                           H   _1      1.007825
                           H   _2      1.007825
                           H   _1      1.007825
                           H   _2      1.007825
                           H           1.007825

                       Total mass:   123.032029 amu
                       Natural abundance:  92.716 %

 Center-of-mass coordinates (a.u.):    0.000000    0.000000   -0.383938


  Atoms and basis sets
  --------------------

  Number of atom types :    4
  Total number of atoms:   14

  Basis set used is "aug-cc-pCVDZ" from the basis set library.

  label    atoms   charge   prim   cont     basis
  ----------------------------------------------------------------------
  C           6    6.0000    39    27      [11s6p2d|5s4p2d]                                   
  N           1    7.0000    39    27      [11s6p2d|5s4p2d]                                   
  O           2    8.0000    39    27      [11s6p2d|5s4p2d]                                   
  H           5    1.0000    11     9      [5s2p|3s2p]                                        
  ----------------------------------------------------------------------
  total:     14   64.0000   406   288
  ----------------------------------------------------------------------
  Spherical harmonic basis used.

  Threshold for neglecting AO integrals:  1.00D-12


  Symmetry Coordinates
  --------------------

  Number of coordinates in each symmetry:    14   14    9    5


   Interatomic separations (in Angstrom):
   --------------------------------------

            C           C   _1      C   _2      C   _1      C   _2      C     
            ------      ------      ------      ------      ------      ------
 C     :    0.000000
 C   _1:    1.391719    0.000000
 C   _2:    1.391719    2.438107    0.000000
 C   _1:    2.392065    1.391780    2.799956    0.000000
 C   _2:    2.392065    2.799956    1.391780    2.421019    0.000000
 C     :    2.757573    2.416230    2.416230    1.395542    1.395542    0.000000
 N     :    1.481505    2.474093    2.474093    3.745665    3.745665    4.239078
 O   _1:    2.319443    3.565729    2.724875    4.710371    4.115239    4.928582
 O   _2:    2.319443    2.724875    3.565729    4.115239    4.710371    4.928582
 H   _1:    2.143694    1.081451    3.407316    2.166922    3.881063    3.407904
 H   _2:    2.143694    3.407316    1.081451    3.881063    2.166922    3.407904
 H   _1:    3.376890    2.145360    3.883675    1.083722    3.403140    2.154719
 H   _2:    3.376890    3.883675    2.145360    3.403140    1.083722    2.154719
 H     :    3.841819    3.396703    3.396703    2.151500    2.151500    1.084247

            N           O   _1      O   _2      H   _1      H   _2      H   _1
            ------      ------      ------      ------      ------      ------
 N     :    0.000000
 O   _1:    1.224763    0.000000
 O   _2:    1.224763    2.169501    0.000000
 H   _1:    2.665523    3.880181    2.401196    0.000000
 H   _2:    2.665523    2.401196    3.880181    4.282121    0.000000
 H   _1:    4.616894    5.667958    4.774936    2.498398    4.964773    0.000000
 H   _2:    4.616894    4.774936    5.667958    4.964773    2.498398    4.298566
 H     :    5.323325    5.990996    5.990996    4.305675    4.305675    2.479943

            H   _2      H     
            ------      ------
 H   _2:    0.000000
 H     :    2.479943    0.000000


  Max    interatomic separation is    5.9910 Angstrom (   11.3213 Bohr)
  between atoms   14 and    8, "H     " and "O   _1".

  Min HX interatomic separation is    1.0815 Angstrom (    2.0436 Bohr)

  Min YX interatomic separation is    1.2248 Angstrom (    2.3145 Bohr)


  Bond distances (Angstrom):
  --------------------------

                  atom 1     atom 2       distance
                  ------     ------       --------
  bond distance:  C   _1     C            1.391719
  bond distance:  C   _2     C            1.391719
  bond distance:  C   _1     C   _1       1.391780
  bond distance:  C   _2     C   _2       1.391780
  bond distance:  C          C   _1       1.395542
  bond distance:  C          C   _2       1.395542
  bond distance:  N          C            1.481505
  bond distance:  O   _1     N            1.224763
  bond distance:  O   _2     N            1.224763
  bond distance:  H   _1     C   _1       1.081451
  bond distance:  H   _2     C   _2       1.081451
  bond distance:  H   _1     C   _1       1.083722
  bond distance:  H   _2     C   _2       1.083722
  bond distance:  H          C            1.084247


  Bond angles (degrees):
  ----------------------

                  atom 1     atom 2     atom 3         angle
                  ------     ------     ------         -----
  bond angle:     C   _1     C          C   _2       122.311
  bond angle:     C   _1     C          N            118.844
  bond angle:     C   _2     C          N            118.844
  bond angle:     C          C   _1     C   _1       118.493
  bond angle:     C          C   _1     H   _1       119.647
  bond angle:     C   _1     C   _1     H   _1       121.860
  bond angle:     C          C   _2     C   _2       118.493
  bond angle:     C          C   _2     H   _2       119.647
  bond angle:     C   _2     C   _2     H   _2       121.860
  bond angle:     C   _1     C   _1     C            120.192
  bond angle:     C   _1     C   _1     H   _1       119.623
  bond angle:     C          C   _1     H   _1       120.185
  bond angle:     C   _2     C   _2     C            120.192
  bond angle:     C   _2     C   _2     H   _2       119.623
  bond angle:     C          C   _2     H   _2       120.185
  bond angle:     C   _1     C          C   _2       120.319
  bond angle:     C   _1     C          H            119.841
  bond angle:     C   _2     C          H            119.841
  bond angle:     C          N          O   _1       117.664
  bond angle:     C          N          O   _2       117.664
  bond angle:     O   _1     N          O   _2       124.671




 Principal moments of inertia (u*A**2) and principal axes
 --------------------------------------------------------

   IA     127.027245          0.000000    0.000000    1.000000
   IB     394.156158          1.000000    0.000000    0.000000
   IC     521.183403          0.000000    1.000000    0.000000


 Rotational constants
 --------------------

@    The molecule is planar.

               A                   B                   C

           3978.5088           1282.1797            969.6759 MHz
            0.132709            0.042769            0.032345 cm-1


@  Nuclear repulsion energy :  412.135415267067 Hartree


  Symmetry Orbitals
  -----------------

  Number of orbitals in each symmetry:         115   91   48   34


  Symmetry  A1 ( 1)

    1     C        1s         1
    2     C        1s         2
    3     C        1s         3
    4     C        1s         4
    5     C        1s         5
    6     C        2pz        8
    7     C        2pz       11
    8     C        2pz       14
    9     C        2pz       17
   10     C        3d0       20
   11     C        3d2+      22
   12     C        3d0       25
   13     C        3d2+      27
   14     C        1s        28 +   29
   15     C        1s        30 +   31
   16     C        1s        32 +   33
   17     C        1s        34 +   35
   18     C        1s        36 +   37
   19     C        2px       38 -   39
   20     C        2pz       42 +   43
   21     C        2px       44 -   45
   22     C        2pz       48 +   49
   23     C        2px       50 -   51
   24     C        2pz       54 +   55
   25     C        2px       56 -   57
   26     C        2pz       60 +   61
   27     C        3d0       66 +   67
   28     C        3d1+      68 -   69
   29     C        3d2+      70 +   71
   30     C        3d0       76 +   77
   31     C        3d1+      78 -   79
   32     C        3d2+      80 +   81
   33     C        1s        82 +   83
   34     C        1s        84 +   85
   35     C        1s        86 +   87
   36     C        1s        88 +   89
   37     C        1s        90 +   91
   38     C        2px       92 -   93
   39     C        2pz       96 +   97
   40     C        2px       98 -   99
   41     C        2pz      102 +  103
   42     C        2px      104 -  105
   43     C        2pz      108 +  109
   44     C        2px      110 -  111
   45     C        2pz      114 +  115
   46     C        3d0      120 +  121
   47     C        3d1+     122 -  123
   48     C        3d2+     124 +  125
   49     C        3d0      130 +  131
   50     C        3d1+     132 -  133
   51     C        3d2+     134 +  135
   52     C        1s       136
   53     C        1s       137
   54     C        1s       138
   55     C        1s       139
   56     C        1s       140
   57     C        2pz      143
   58     C        2pz      146
   59     C        2pz      149
   60     C        2pz      152
   61     C        3d0      155
   62     C        3d2+     157
   63     C        3d0      160
   64     C        3d2+     162
   65     N        1s       163
   66     N        1s       164
   67     N        1s       165
   68     N        1s       166
   69     N        1s       167
   70     N        2pz      170
   71     N        2pz      173
   72     N        2pz      176
   73     N        2pz      179
   74     N        3d0      182
   75     N        3d2+     184
   76     N        3d0      187
   77     N        3d2+     189
   78     O        1s       190 +  191
   79     O        1s       192 +  193
   80     O        1s       194 +  195
   81     O        1s       196 +  197
   82     O        1s       198 +  199
   83     O        2px      200 -  201
   84     O        2pz      204 +  205
   85     O        2px      206 -  207
   86     O        2pz      210 +  211
   87     O        2px      212 -  213
   88     O        2pz      216 +  217
   89     O        2px      218 -  219
   90     O        2pz      222 +  223
   91     O        3d0      228 +  229
   92     O        3d1+     230 -  231
   93     O        3d2+     232 +  233
   94     O        3d0      238 +  239
   95     O        3d1+     240 -  241
   96     O        3d2+     242 +  243
   97     H        1s       244 +  245
   98     H        1s       246 +  247
   99     H        1s       248 +  249
  100     H        2px      250 -  251
  101     H        2pz      254 +  255
  102     H        2px      256 -  257
  103     H        2pz      260 +  261
  104     H        1s       262 +  263
  105     H        1s       264 +  265
  106     H        1s       266 +  267
  107     H        2px      268 -  269
  108     H        2pz      272 +  273
  109     H        2px      274 -  275
  110     H        2pz      278 +  279
  111     H        1s       280
  112     H        1s       281
  113     H        1s       282
  114     H        2pz      285
  115     H        2pz      288


  Symmetry  B1 ( 2)

  116     C        2px        6
  117     C        2px        9
  118     C        2px       12
  119     C        2px       15
  120     C        3d1+      21
  121     C        3d1+      26
  122     C        1s        28 -   29
  123     C        1s        30 -   31
  124     C        1s        32 -   33
  125     C        1s        34 -   35
  126     C        1s        36 -   37
  127     C        2px       38 +   39
  128     C        2pz       42 -   43
  129     C        2px       44 +   45
  130     C        2pz       48 -   49
  131     C        2px       50 +   51
  132     C        2pz       54 -   55
  133     C        2px       56 +   57
  134     C        2pz       60 -   61
  135     C        3d0       66 -   67
  136     C        3d1+      68 +   69
  137     C        3d2+      70 -   71
  138     C        3d0       76 -   77
  139     C        3d1+      78 +   79
  140     C        3d2+      80 -   81
  141     C        1s        82 -   83
  142     C        1s        84 -   85
  143     C        1s        86 -   87
  144     C        1s        88 -   89
  145     C        1s        90 -   91
  146     C        2px       92 +   93
  147     C        2pz       96 -   97
  148     C        2px       98 +   99
  149     C        2pz      102 -  103
  150     C        2px      104 +  105
  151     C        2pz      108 -  109
  152     C        2px      110 +  111
  153     C        2pz      114 -  115
  154     C        3d0      120 -  121
  155     C        3d1+     122 +  123
  156     C        3d2+     124 -  125
  157     C        3d0      130 -  131
  158     C        3d1+     132 +  133
  159     C        3d2+     134 -  135
  160     C        2px      141
  161     C        2px      144
  162     C        2px      147
  163     C        2px      150
  164     C        3d1+     156
  165     C        3d1+     161
  166     N        2px      168
  167     N        2px      171
  168     N        2px      174
  169     N        2px      177
  170     N        3d1+     183
  171     N        3d1+     188
  172     O        1s       190 -  191
  173     O        1s       192 -  193
  174     O        1s       194 -  195
  175     O        1s       196 -  197
  176     O        1s       198 -  199
  177     O        2px      200 +  201
  178     O        2pz      204 -  205
  179     O        2px      206 +  207
  180     O        2pz      210 -  211
  181     O        2px      212 +  213
  182     O        2pz      216 -  217
  183     O        2px      218 +  219
  184     O        2pz      222 -  223
  185     O        3d0      228 -  229
  186     O        3d1+     230 +  231
  187     O        3d2+     232 -  233
  188     O        3d0      238 -  239
  189     O        3d1+     240 +  241
  190     O        3d2+     242 -  243
  191     H        1s       244 -  245
  192     H        1s       246 -  247
  193     H        1s       248 -  249
  194     H        2px      250 +  251
  195     H        2pz      254 -  255
  196     H        2px      256 +  257
  197     H        2pz      260 -  261
  198     H        1s       262 -  263
  199     H        1s       264 -  265
  200     H        1s       266 -  267
  201     H        2px      268 +  269
  202     H        2pz      272 -  273
  203     H        2px      274 +  275
  204     H        2pz      278 -  279
  205     H        2px      283
  206     H        2px      286


  Symmetry  B2 ( 3)

  207     C        2py        7
  208     C        2py       10
  209     C        2py       13
  210     C        2py       16
  211     C        3d1-      19
  212     C        3d1-      24
  213     C        2py       40 +   41
  214     C        2py       46 +   47
  215     C        2py       52 +   53
  216     C        2py       58 +   59
  217     C        3d2-      62 -   63
  218     C        3d1-      64 +   65
  219     C        3d2-      72 -   73
  220     C        3d1-      74 +   75
  221     C        2py       94 +   95
  222     C        2py      100 +  101
  223     C        2py      106 +  107
  224     C        2py      112 +  113
  225     C        3d2-     116 -  117
  226     C        3d1-     118 +  119
  227     C        3d2-     126 -  127
  228     C        3d1-     128 +  129
  229     C        2py      142
  230     C        2py      145
  231     C        2py      148
  232     C        2py      151
  233     C        3d1-     154
  234     C        3d1-     159
  235     N        2py      169
  236     N        2py      172
  237     N        2py      175
  238     N        2py      178
  239     N        3d1-     181
  240     N        3d1-     186
  241     O        2py      202 +  203
  242     O        2py      208 +  209
  243     O        2py      214 +  215
  244     O        2py      220 +  221
  245     O        3d2-     224 -  225
  246     O        3d1-     226 +  227
  247     O        3d2-     234 -  235
  248     O        3d1-     236 +  237
  249     H        2py      252 +  253
  250     H        2py      258 +  259
  251     H        2py      270 +  271
  252     H        2py      276 +  277
  253     H        2py      284
  254     H        2py      287


  Symmetry  A2 ( 4)

  255     C        3d2-      18
  256     C        3d2-      23
  257     C        2py       40 -   41
  258     C        2py       46 -   47
  259     C        2py       52 -   53
  260     C        2py       58 -   59
  261     C        3d2-      62 +   63
  262     C        3d1-      64 -   65
  263     C        3d2-      72 +   73
  264     C        3d1-      74 -   75
  265     C        2py       94 -   95
  266     C        2py      100 -  101
  267     C        2py      106 -  107
  268     C        2py      112 -  113
  269     C        3d2-     116 +  117
  270     C        3d1-     118 -  119
  271     C        3d2-     126 +  127
  272     C        3d1-     128 -  129
  273     C        3d2-     153
  274     C        3d2-     158
  275     N        3d2-     180
  276     N        3d2-     185
  277     O        2py      202 -  203
  278     O        2py      208 -  209
  279     O        2py      214 -  215
  280     O        2py      220 -  221
  281     O        3d2-     224 +  225
  282     O        3d1-     226 -  227
  283     O        3d2-     234 +  235
  284     O        3d1-     236 -  237
  285     H        2py      252 -  253
  286     H        2py      258 -  259
  287     H        2py      270 -  271
  288     H        2py      276 -  277

  Symmetries of electric field:  B1 (2)  B2 (3)  A1 (1)

  Symmetries of magnetic field:  B2 (3)  B1 (2)  A2 (4)


                     .---------------------------------------.
                     | Starting in Integral Section (HERMIT) |
                     `---------------------------------------'



 ***************************************************************************************
 ****************** Output from **INTEGRALS input processing (HERMIT) ******************
 ***************************************************************************************


 - Using defaults, no **INTEGRALS input found

 Default print level:        1

 Calculation of one-electron Hamiltonian integrals.

 Center of mass  (bohr):      0.000000000000      0.000000000000     -0.383938108481
 Operator center (bohr):      0.000000000000      0.000000000000      0.000000000000
 Gauge origin    (bohr):      0.000000000000      0.000000000000      0.000000000000
 Dipole origin   (bohr):      0.000000000000      0.000000000000      0.000000000000


     ************************************************************************
     ************************** Output from HERINT **************************
     ************************************************************************



                      Nuclear contribution to dipole moments
                      --------------------------------------

                 au               Debye          C m (/(10**-30)

      z    -32.41191504       -82.38286538      -274.79965949


  Total CPU  time used in HERMIT:   0.48 seconds
  Total wall time used in HERMIT:   0.54 seconds


                        .----------------------------------.
                        | End of Integral Section (HERMIT) |
                        `----------------------------------'



                   .--------------------------------------------.
                   | Starting in Wave Function Section (SIRIUS) |
                   `--------------------------------------------'


 *** Output from Huckel module :

     Using EWMO model:          F
     Using EHT  model:          T
     Number of Huckel orbitals each symmetry:   24   17    6    3

 Huckel EHT eigenvalues for symmetry :  1
          -20.695822     -15.706036     -11.414993     -11.394585     -11.376746
          -11.362597      -1.748744      -1.555382      -1.196259      -0.941364
           -0.817059      -0.782210      -0.643577      -0.589224      -0.493397
           -0.429144      -0.328230      -0.246947      -0.225806      -0.213738
           -0.205823      -0.178738      -0.166343      -0.160473

 Huckel EHT eigenvalues for symmetry :  2
          -20.700625     -11.396474     -11.377857      -1.399983      -1.203200
           -0.879843      -0.646405      -0.569964      -0.526471      -0.479328
           -0.414891      -0.271537      -0.213209      -0.202807      -0.176234
           -0.165379      -0.163255

 Huckel EHT eigenvalues for symmetry :  3
           -0.800032      -0.672072      -0.465792      -0.384453      -0.281766
           -0.236539

 Huckel EHT eigenvalues for symmetry :  4
           -0.592875      -0.460139      -0.288832

 **********************************************************************
 *SIRIUS* a direct, restricted step, second order MCSCF program       *
 **********************************************************************

 
     Date and time (Linux)  : Sat Apr 11 17:32:16 2020
     Host name              : n0233.lr3                               

 Title lines from ".mol" input file:
      nitrobenzene                                                           
      Generated by the Dalton Input File Plugin for Avogadro                 

 Print level on unit LUPRI =   2 is   0
 Print level on unit LUW4  =   2 is   5

@    MC-SCF optimization.

@    Multi-configurational response calculation.
@              Type: complete active space calculation (CAS).

@    This is a combination run starting with
@              a restricted, closed shell Hartree-Fock calculation
@              an MP2 calculation

 Fock matrices are calculated directly and in parallel without use of integrals on disk.

 Initial molecular orbitals are obtained according to
 ".MOSTART EHT   " input option

     Wave function specification
     ============================
@    Wave function type        --- MC-SCF ---
@    Number of closed shell electrons          54
@    Number of electrons in active shells      10
@    Total charge of the molecule               0

@    Spin multiplicity and 2 M_S                1         0
@    Total number of symmetries                 4 (point group: C2v)
@    Reference state symmetry                   1 (irrep name : A1 )

     Orbital specifications
     ======================
@    Abelian symmetry species          All |    1    2    3    4
@                                          |  A1   B1   B2   A2 
                                       --- |  ---  ---  ---  ---
@    Inactive orbitals                  27 |   15   10    2    0
@    Active orbitals                     7 |    1    1    2    3
@    Secondary orbitals                254 |   99   80   44   31
@    Total number of orbitals          288 |  115   91   48   34
@    Number of basis functions         288 |  115   91   48   34

      ** Automatic occupation of RHF orbitals **

      -- Initial occupation of symmetries is determined from extended Huckel guess.           
      -- Initial occupation of symmetries is :
@    Occupied SCF orbitals              32 |   16   11    3    2

     Optimization information
     ========================
@    Number of determinants                 115
@    Number of orbital rotations           2762
     ------------------------------------------
@    Total number of variables             2877

     Maximum number of macro iterations      25
     Maximum number of micro iterations     600
     Threshold for MCSCF gradient      1.00D-05
     Number of initial trial vectors          1
     Number of initial CI iterations          3
     Number of simultaneous trial vectors     1

@    This calculation converges to the lowest state for the specified symmetry and spin species.

     Maximum number of NEO/NR iterations  24

    INFORMATION: Switched to "new" integral transformation (from 1988 ;-) )
    because more than 255 basis functions.


 ***********************************************
 ***** DIIS acceleration of SCF iterations *****
 ***********************************************

 C1-DIIS algorithm; max error vectors =    8

 Automatic occupation of symmetries with  64 electrons.

 Iter     Total energy    Error norm  Delta(E)    SCF occupation
 -----------------------------------------------------------------------------
   1  Screening settings (-IFTHRS, JTDIIS, DIFDEN, times)   -8    1    T  3.42D+00  3.42D+00
@  1  -432.255033762       6.47D+00  -4.32D+02    16  11   3   2
      Virial theorem: -V/T =      1.998650
@    MULPOP   C       0.34; C   _1  0.26; C   _2  0.26; C   _1  0.24; C   _2  0.24; C       0.36; N       1.30; O   _1 -1.02; O   _2 -1.02; H   _1 -0.20; 
@             H   _2 -0.20; H   _1 -0.18; H   _2 -0.18; H      -0.19; 
   1  Level shift: doubly occupied orbital energies shifted by -2.00D-01
 -----------------------------------------------------------------------------
   2  Screening settings (-IFTHRS, JTDIIS, DIFDEN, times)   -8    2    T  3.39D+00  3.39D+00
@  2  -433.840473573       2.93D+00  -1.59D+00    16  11   3   2
      Virial theorem: -V/T =      2.001483
@    MULPOP   C       0.91; C   _1  0.35; C   _2  0.35; C   _1  0.35; C   _2  0.35; C       0.38; N       0.33; O   _1 -0.52; O   _2 -0.52; H   _1 -0.40; 
@             H   _2 -0.40; H   _1 -0.40; H   _2 -0.40; H      -0.40; 
   2  Level shift: doubly occupied orbital energies shifted by -1.00D-01
 -----------------------------------------------------------------------------
   3  Screening settings (-IFTHRS, JTDIIS, DIFDEN, times)   -8    3    T  3.37D+00  3.37D+00
@  3  -434.207204089       7.17D-01  -3.67D-01    16  11   3   2
      Virial theorem: -V/T =      2.000864
@    MULPOP   C       1.68; C   _1  0.24; C   _2  0.24; C   _1  0.44; C   _2  0.44; C       0.30; N       0.67; O   _1 -0.89; O   _2 -0.89; H   _1 -0.45; 
@             H   _2 -0.45; H   _1 -0.44; H   _2 -0.44; H      -0.44; 
   3  Level shift: doubly occupied orbital energies shifted by -2.50D-02
 -----------------------------------------------------------------------------
   4  Screening settings (-IFTHRS, JTDIIS, DIFDEN, times)   -8    4    T  3.36D+00  3.36D+00
@  4  -434.232828188       1.86D-01  -2.56D-02    16  11   3   2
      Virial theorem: -V/T =      2.002656
@    MULPOP   C       1.76; C   _1  0.19; C   _2  0.19; C   _1  0.51; C   _2  0.51; C       0.28; N       0.54; O   _1 -0.86; O   _2 -0.86; H   _1 -0.45; 
@             H   _2 -0.45; H   _1 -0.46; H   _2 -0.46; H      -0.46; 
   4  Level shift: doubly occupied orbital energies shifted by -1.25D-02
 -----------------------------------------------------------------------------
   5  Screening settings (-IFTHRS, JTDIIS, DIFDEN, times)  -10    5    F  3.41D+00  3.41D+00
@  5  -434.235503640       5.52D-02  -2.68D-03    16  11   3   2
      Virial theorem: -V/T =      2.002075
@    MULPOP   C       1.80; C   _1  0.17; C   _2  0.17; C   _1  0.51; C   _2  0.51; C       0.26; N       0.53; O   _1 -0.87; O   _2 -0.87; H   _1 -0.44; 
@             H   _2 -0.44; H   _1 -0.44; H   _2 -0.44; H      -0.44; 
 -----------------------------------------------------------------------------
   6  Screening settings (-IFTHRS, JTDIIS, DIFDEN, times)  -10    6    T  3.39D+00  3.39D+00
@  6  -434.235840724       1.54D-02  -3.37D-04    16  11   3   2
      Virial theorem: -V/T =      2.001997
@    MULPOP   C       1.81; C   _1  0.16; C   _2  0.16; C   _1  0.51; C   _2  0.51; C       0.26; N       0.51; O   _1 -0.86; O   _2 -0.86; H   _1 -0.44; 
@             H   _2 -0.44; H   _1 -0.44; H   _2 -0.44; H      -0.44; 
 -----------------------------------------------------------------------------
   7  Screening settings (-IFTHRS, JTDIIS, DIFDEN, times)  -13    7    F  3.43D+00  3.43D+00
@  7  -434.235873250       6.20D-03  -3.25D-05    16  11   3   2
      Virial theorem: -V/T =      2.002033
@    MULPOP   C       1.82; C   _1  0.16; C   _2  0.16; C   _1  0.51; C   _2  0.51; C       0.26; N       0.51; O   _1 -0.86; O   _2 -0.86; H   _1 -0.44; 
@             H   _2 -0.44; H   _1 -0.44; H   _2 -0.44; H      -0.44; 
 -----------------------------------------------------------------------------
   8  Screening settings (-IFTHRS, JTDIIS, DIFDEN, times)  -13    8    T  3.41D+00  3.41D+00
@  8  -434.235878261       2.11D-03  -5.01D-06    16  11   3   2
      Virial theorem: -V/T =      2.002021
@    MULPOP   C       1.82; C   _1  0.16; C   _2  0.16; C   _1  0.51; C   _2  0.51; C       0.26; N       0.51; O   _1 -0.86; O   _2 -0.86; H   _1 -0.44; 
@             H   _2 -0.44; H   _1 -0.44; H   _2 -0.44; H      -0.44; 
 -----------------------------------------------------------------------------
   9  Screening settings (-IFTHRS, JTDIIS, DIFDEN, times)  -13    9    T  3.41D+00  3.41D+00
@  9  -434.235878813       6.62D-04  -5.52D-07    16  11   3   2
      Virial theorem: -V/T =      2.002018
@    MULPOP   C       1.82; C   _1  0.16; C   _2  0.16; C   _1  0.51; C   _2  0.51; C       0.26; N       0.51; O   _1 -0.86; O   _2 -0.86; H   _1 -0.44; 
@             H   _2 -0.44; H   _1 -0.44; H   _2 -0.44; H      -0.44; 
 -----------------------------------------------------------------------------
  10  Screening settings (-IFTHRS, JTDIIS, DIFDEN, times)  -13   10    T  3.41D+00  3.41D+00
@ 10  -434.235878868       2.21D-04  -5.52D-08    16  11   3   2
      Virial theorem: -V/T =      2.002020
@    MULPOP   C       1.82; C   _1  0.16; C   _2  0.16; C   _1  0.51; C   _2  0.51; C       0.26; N       0.51; O   _1 -0.86; O   _2 -0.86; H   _1 -0.44; 
@             H   _2 -0.44; H   _1 -0.44; H   _2 -0.44; H      -0.44; 
 -----------------------------------------------------------------------------
  11  Screening settings (-IFTHRS, JTDIIS, DIFDEN, times)  -13   11    T  3.41D+00  3.41D+00
@ 11  -434.235878877       8.32D-05  -8.73D-09    16  11   3   2
      Virial theorem: -V/T =      2.002019
@    MULPOP   C       1.82; C   _1  0.16; C   _2  0.16; C   _1  0.51; C   _2  0.51; C       0.26; N       0.51; O   _1 -0.86; O   _2 -0.86; H   _1 -0.44; 
@             H   _2 -0.44; H   _1 -0.44; H   _2 -0.44; H      -0.44; 
 -----------------------------------------------------------------------------
  12  Screening settings (-IFTHRS, JTDIIS, DIFDEN, times)  -13   12    T  3.39D+00  3.40D+00
@ 12  -434.235878878       3.45D-05  -1.49D-09    16  11   3   2
      Virial theorem: -V/T =      2.002019
@    MULPOP   C       1.82; C   _1  0.16; C   _2  0.16; C   _1  0.51; C   _2  0.51; C       0.26; N       0.51; O   _1 -0.86; O   _2 -0.86; H   _1 -0.44; 
@             H   _2 -0.44; H   _1 -0.44; H   _2 -0.44; H      -0.44; 
 -----------------------------------------------------------------------------
  13  Screening settings (-IFTHRS, JTDIIS, DIFDEN, times)  -13   13    T  3.38D+00  3.39D+00
@ 13  -434.235878878       1.91D-05  -2.24D-10    16  11   3   2
      Virial theorem: -V/T =      2.002019
@    MULPOP   C       1.82; C   _1  0.16; C   _2  0.16; C   _1  0.51; C   _2  0.51; C       0.26; N       0.51; O   _1 -0.86; O   _2 -0.86; H   _1 -0.44; 
@             H   _2 -0.44; H   _1 -0.44; H   _2 -0.44; H      -0.44; 
 -----------------------------------------------------------------------------
  14  Screening settings (-IFTHRS, JTDIIS, DIFDEN, times)  -13   14    T  3.39D+00  3.39D+00
@ 14  -434.235878879       6.79D-06  -1.07D-10    16  11   3   2
      Virial theorem: -V/T =      2.002019
@    MULPOP   C       1.82; C   _1  0.16; C   _2  0.16; C   _1  0.51; C   _2  0.51; C       0.26; N       0.51; O   _1 -0.86; O   _2 -0.86; H   _1 -0.44; 
@             H   _2 -0.44; H   _1 -0.44; H   _2 -0.44; H      -0.44; 
 -----------------------------------------------------------------------------
  15  Screening settings (-IFTHRS, JTDIIS, DIFDEN, times)  -13   15    T  3.37D+00  3.37D+00
@ 15  -434.235878879       2.78D-06  -1.46D-11    16  11   3   2
      Virial theorem: -V/T =      2.002019
@    MULPOP   C       1.82; C   _1  0.16; C   _2  0.16; C   _1  0.51; C   _2  0.51; C       0.26; N       0.51; O   _1 -0.86; O   _2 -0.86; H   _1 -0.44; 
@             H   _2 -0.44; H   _1 -0.44; H   _2 -0.44; H      -0.44; 
 -----------------------------------------------------------------------------
  16  Screening settings (-IFTHRS, JTDIIS, DIFDEN, times)  -13   16    T  3.37D+00  3.37D+00
@ 16  -434.235878879       1.24D-06  -2.05D-12    16  11   3   2
      Virial theorem: -V/T =      2.002019
@    MULPOP   C       1.82; C   _1  0.16; C   _2  0.16; C   _1  0.51; C   _2  0.51; C       0.26; N       0.51; O   _1 -0.86; O   _2 -0.86; H   _1 -0.44; 
@             H   _2 -0.44; H   _1 -0.44; H   _2 -0.44; H      -0.44; 
 -----------------------------------------------------------------------------
  17  Screening settings (-IFTHRS, JTDIIS, DIFDEN, times)  -13   17    T  3.38D+00  3.38D+00
@ 17  -434.235878879       5.11D-07  -5.68D-13    16  11   3   2

@ *** DIIS converged in  17 iterations !
@     Converged SCF energy, gradient:   -434.235878878541    5.11D-07
    - total time used in SIRFCK :              0.00 seconds

 --- Writing SIRIFC interface file

 CPU and wall time for SCF :      58.108      58.141


 ----- Output from SIRIUS MP2 module -----

 Reference: H.J.Aa.Jensen, P.Jorgensen, H.Agren, and J.Olsen,
            J. Chem. Phys. 88, 3834 (1988); 89, 5354 (1988)

 Checking that the closed shell orbitals are canonical Hartree-Fock orbitals

    Number of electrons  :   64
    Closed shell orbitals:   16   11    3    2

 Generating Fock matrix

 Hartree-Fock electronic energy:        -846.371294145610
 Hartree-Fock total      energy:        -434.235878878543

 Hartree-Fock orbital energies, symmetry 1 ( A1 ),   16 occupied SCF orbitals

       -20.61417110   -15.86237593   -11.32039765   -11.28448789   -11.28185976
       -11.27434416    -1.61153917    -1.20255598    -1.09505088    -0.96341509
        -0.83330472    -0.78372016    -0.71048858    -0.65256891    -0.55708606
        -0.49641636     0.02659951     0.04407949     0.06219486     0.10461676
         0.13068121     0.13486327     0.15097555     0.15649041     0.17308627
         0.18061396     0.21474324     0.25848594     0.28798556     0.30096523
         0.31139945     0.33788010     0.35052653     0.35377489     0.37057752
         0.39572440     0.41252907     0.43304954     0.45898079     0.48504380
         0.51436659     0.56050091     0.58194351     0.58612658     0.63095206
         0.64975899     0.65911976     0.67684533     0.72619945     0.73295792
         0.74224629     0.83773124     0.88360922     0.92957689     0.95721759
         0.96439348     1.00706859     1.05644369     1.07988812     1.13685051
         1.27746893     1.36129016     1.37715011     1.44938420     1.49539752
         1.51272628     1.55193621     1.57104584     1.58860050     1.61318998
         1.68097442     1.71922358     1.74659545     1.77088345     1.87036378
         1.93984620     1.95567175     2.00819683     2.01781840     2.12777003
         2.16524209     2.23655739     2.30797107     2.37217121     2.42011244
         2.44526882     2.55215502     2.70321931     2.77323347     2.83546800
         2.88285277     2.96588688     3.03790968     3.15088457     3.27207190
         3.43086484     3.75909375     3.97779664     4.08738152     4.24035423
        19.80216512    20.33471292    20.45350212    20.62025463    23.35312307
        23.38512907    23.42606565    23.81652216    23.91403555    24.12263867
        27.07942062    31.26176545    35.80296116    39.72248038    39.83640276

 Hartree-Fock orbital energies, symmetry 2 ( B1 ),   11 occupied SCF orbitals

       -20.61422309   -11.28452640   -11.27445023    -1.40525316    -1.05608805
        -0.86811721    -0.73116970    -0.65864204    -0.62664556    -0.53266848
        -0.49556160     0.03599233     0.05989216     0.13018828     0.13329649
         0.15342205     0.17409164     0.18365653     0.21428719     0.26199245
         0.28928528     0.31373522     0.33367262     0.36187549     0.36955513
         0.39420137     0.42201700     0.43798619     0.47010802     0.56760153
         0.57788798     0.59072816     0.64895205     0.67033436     0.67933706
         0.69986787     0.75544096     0.76175078     0.82905203     0.84332427
         0.86497854     0.92993003     1.01513770     1.14112266     1.20571476
         1.24972163     1.31577769     1.40540247     1.41801391     1.48592627
         1.57081824     1.59062152     1.61155216     1.63722502     1.70212435
         1.75930380     1.77081241     1.78854622     1.88896196     1.92944577
         1.99799098     2.08394132     2.22999909     2.26182019     2.33999489
         2.34660058     2.38741820     2.53067613     2.57483557     2.76962509
         2.89839946     2.93544586     3.09429566     3.27912819     3.32978112
         3.41249618     3.75311731     3.85580868     4.21665050    20.30117581
        20.48109871    22.90558387    23.34094579    23.38926434    23.93817256
        24.12074418    24.30825335    31.44434377    35.54894131    39.63722748
        40.03400853

 Hartree-Fock orbital energies, symmetry 3 ( B2 ),    3 occupied SCF orbitals

        -0.72001900    -0.53770566    -0.37843726     0.03458080     0.10677270
         0.12551405     0.13902261     0.18397534     0.19258157     0.24522809
         0.31949811     0.34209337     0.37366666     0.44421940     0.53321574
         0.58745116     0.64292081     0.71286211     0.78993633     0.83969682
         0.87158699     0.92146827     0.92631032     0.98545767     1.14496090
         1.28691472     1.29187874     1.47082324     1.47424869     1.61581928
         1.67347141     1.70782967     1.84383688     1.89844671     1.97598987
         2.08198394     2.17780509     2.29605085     2.53772614     2.67695238
         3.66933031     3.78184748    22.54328392    22.69079477    22.82759548
        23.02617935    30.55420632    39.42094193

 Hartree-Fock orbital energies, symmetry 4 ( A2 ),    2 occupied SCF orbitals

        -0.45668199    -0.36994494     0.08557737     0.13129987     0.18584652
         0.29771046     0.41313442     0.49048500     0.54759717     0.66056978
         0.73593754     0.89541577     0.90129794     0.94413588     1.03711742
         1.08949890     1.21293458     1.24315543     1.33469620     1.48755685
         1.67165853     1.68873666     1.86045484     2.00087239     2.11673830
         2.21192537     2.35443882     2.46969306     2.60547134     3.66517699
         4.00212840    22.69204549    22.85865589    39.49631745

    E(LUMO) :     0.02659951   (in symmetry 1)
  - E(HOMO) :    -0.36994494   (in symmetry 4)
  --------------------------
    gap     :     0.39654445

---> (Re)generating AOTWOINT


     ************************************************************************
     ************************** Output from HERINT **************************
     ************************************************************************


 Threshold for neglecting two-electron integrals:  1.00D-12
 HERMIT - Number of two-electron integrals written:   203489779 ( 23.5% )
 HERMIT - Megabytes written:                           3106.305

  Time used in TWOINT     is      34.05 seconds

 2-el. integral transformation level 5: Total CPU and WALL times (sec)     188.547     197.860

 MP2 move   0.994252 electrons to unoccupied HF orbitals


@   Hartree-Fock total energy   :          -434.2358788785
@   + MP2 contribution          :            -1.7260834345
@   = MP2 second order energy   :          -435.9619623130

 Natural orbital occupation numbers, symmetry 1 (irrep A1 )
 Sum =    32.00759245; RHF =    32.00000000; Difference =     0.00759245

         1.99929005     1.99907562     1.99876147     1.99875654     1.99875179
         1.99874781     1.98691347     1.98412472     1.97944295     1.97231707
         1.96893153     1.96827032     1.96537240     1.96215915     1.95511148
         1.94583895     0.04264919     0.03587687     0.02549561     0.02382135
         0.01919835     0.01857280     0.01733459     0.01646601     0.01378678
         0.01267631     0.01165949     0.00982803     0.00853730     0.00786410
         0.00742070     0.00668784     0.00561639     0.00453967     0.00307149
         0.00294636     0.00270177     0.00261726     0.00221577     0.00202176
         0.00184771     0.00167078     0.00161242     0.00131380     0.00121167
         0.00116249     0.00105960     0.00096309     0.00071593     0.00065228
         0.00061215     0.00053529     0.00049915     0.00046308     0.00043902
         0.00041642     0.00040416     0.00038624     0.00037639     0.00035069
         0.00034204     0.00032369     0.00031264     0.00029117     0.00026770
         0.00026068     0.00022463     0.00021676     0.00020400     0.00019575
         0.00018665     0.00018579     0.00017628     0.00017097     0.00016714
         0.00016168     0.00015559     0.00014976     0.00014048     0.00013324
         0.00012600     0.00012418     0.00012190     0.00011088     0.00010499
         0.00009379     0.00007786     0.00007142     0.00005818     0.00005481
         0.00005180     0.00003960     0.00003451     0.00002814     0.00002064
         0.00001754     0.00001447     0.00001258     0.00001143     0.00000935
         0.00000874     0.00000846     0.00000701     0.00000313     0.00000299
         0.00000201     0.00000105     0.00000056     0.00000036     0.00000018
         0.00000016     0.00000000    -0.00000010    -0.00000051    -0.00005577

 Natural orbital occupation numbers, symmetry 2 (irrep B1 )
 Sum =    21.95381566; RHF =    22.00000000; Difference =    -0.04618434

         1.99928994     1.99875721     1.99875088     1.98413947     1.98002660
         1.97273754     1.96258456     1.96054625     1.95481423     1.95428922
         1.94646816     0.03812132     0.02539835     0.02378137     0.01908997
         0.01660080     0.01594382     0.01521400     0.01125531     0.01052194
         0.00911282     0.00767940     0.00580779     0.00539408     0.00516025
         0.00398147     0.00312603     0.00273144     0.00239905     0.00212914
         0.00172252     0.00162337     0.00152097     0.00131891     0.00118629
         0.00102600     0.00097340     0.00069765     0.00064103     0.00056828
         0.00049083     0.00044037     0.00042298     0.00037287     0.00035375
         0.00033746     0.00030487     0.00029257     0.00026990     0.00025894
         0.00023872     0.00021141     0.00019814     0.00018774     0.00018264
         0.00017772     0.00017020     0.00016933     0.00016020     0.00015388
         0.00014374     0.00013380     0.00012922     0.00012576     0.00011881
         0.00011287     0.00009462     0.00008943     0.00006870     0.00005433
         0.00004576     0.00003694     0.00003057     0.00002896     0.00002323
         0.00001516     0.00001424     0.00001139     0.00001061     0.00000853
         0.00000470     0.00000358     0.00000179     0.00000124     0.00000059
         0.00000028     0.00000014    -0.00000003    -0.00000020    -0.00000067
        -0.00001775

 Natural orbital occupation numbers, symmetry 3 (irrep B2 )
 Sum =     6.07755902; RHF =     6.00000000; Difference =     0.07755902

         1.95053931     1.94432957     1.90911673     0.10149697     0.06752211
         0.02962133     0.01050098     0.01030915     0.00872329     0.00793454
         0.00617060     0.00527829     0.00447546     0.00388759     0.00342592
         0.00306668     0.00153528     0.00144250     0.00099275     0.00088768
         0.00086614     0.00066159     0.00060065     0.00049500     0.00047223
         0.00041876     0.00033448     0.00029013     0.00024920     0.00022967
         0.00019740     0.00019584     0.00018985     0.00017686     0.00015337
         0.00013026     0.00012126     0.00011109     0.00010092     0.00008326
         0.00008042     0.00006275     0.00003623     0.00002029     0.00001047
         0.00000779     0.00000513     0.00000124

 Natural orbital occupation numbers, symmetry 4 (irrep A2 )
 Sum =     3.96103287; RHF =     4.00000000; Difference =    -0.03896713

         1.91632986     1.90850449     0.06656439     0.01453167     0.01040286
         0.00930725     0.00791703     0.00570712     0.00512238     0.00406010
         0.00357680     0.00152737     0.00119959     0.00093581     0.00077864
         0.00072822     0.00067357     0.00056391     0.00040707     0.00037046
         0.00033916     0.00029678     0.00021641     0.00019696     0.00016454
         0.00013308     0.00011678     0.00010380     0.00009345     0.00006954
         0.00005016     0.00002065     0.00001756     0.00000539

 Time used for MP2 natural orbitals :     194.826 CPU seconds,     204.139 wall seconds.

 CPU and wall time for MP2 :     194.826     204.139


        SIRIUS MCSCF optimization (SIROPT)
 ================================================


 Fock matrix screening setting for SIRCNO: IFTHRS =    9


 ----- Output from SIRIUS CI module (CICTL) -----




 2-el. integral transformation level 0: Total CPU and WALL times (sec)      54.285      54.287


 --- SIRCI.CIST1: plus combination of all degenerate
                 configurations is used as start vectors.


 (CIST1) 8 lowest diagonal elements:

 Element no. Config.no.    Active energy      Total energy

         1 :         67    -17.3292581934   -434.2173109224
         2 :         69    -17.0379295846   -433.9259823137
         3 :         81    -17.0379295846   -433.9259823137
         4 :         68    -16.9838401325   -433.8718928615
         5 :         74    -16.9838401325   -433.8718928615
         6 :         78    -16.8808158970   -433.7688686260
         7 :         96    -16.8808158970   -433.7688686260
         8 :         71    -16.8343853895   -433.7224381185


 Convergence threshold for CI optimization :     0.00000500



 *** Reached maximum number of CI iterations:    3
              1 CI roots are not converged.


@ Final CI energies and residuals in symmetry 1 (irrep A1 )
@    1     -434.266378843522602       4.68D-03

   --- OUTPUT FROM SIRCNO     Keyword = FD+NO 


 Occupations of CAS natural orbitals:

 Symmetry  1 ( irrep A1  in C2v )

   1.999838383

 Symmetry  2 ( irrep B1  in C2v )

   1.999838531

 Symmetry  3 ( irrep B2  in C2v )

   1.989238670   0.088240168

 Symmetry  4 ( irrep A2  in C2v )

   1.914874085   1.968763485   0.039206678


 --- MACRO ITERATION  1 ---
 --------------------------

 2-el. integral transformation level 3: Total CPU and WALL times (sec)      53.873      53.874

 Fock matrix screening setting for this macro iteration: 10^( -9)

 Total MCSCF energy       :          -434.266378844438123  (MACRO    1)

 - Nuclear repulsion      :           412.135415267066946
 - Inactive energy        :          -829.023467997302760
 - Active energy          :           -17.378326114202320

 Norm of total gradient   :             0.521687575699
 -    of CI gradient      :             0.009355840567
 -    of orbital gradient :             0.521603676066
      Virial theorem: -V/T =      2.000881
@    MULPOP   C       1.48; C   _1  0.29; C   _2  0.29; C   _1  0.49; C   _2  0.49; C       0.33; N       0.36; O   _1 -0.67; O   _2 -0.67; H   _1 -0.49; 
@             H   _2 -0.49; H   _1 -0.47; H   _2 -0.47; H      -0.47; 

 Residual norm when dim(red L) =   4
 NEO root     CSF        orbital          total
    1     0.07323066     0.02869656     0.07865254 converged

 (NEONEX) NEO vector is converged.

   --- OUTPUT FROM SIRCNO     Keyword = FD+NO 


 Occupations of CAS natural orbitals:

 Symmetry  1 ( irrep A1  in C2v )

   1.999838383

 Symmetry  2 ( irrep B1  in C2v )

   1.999838531

 Symmetry  3 ( irrep B2  in C2v )

   1.989238670   0.088240168

 Symmetry  4 ( irrep A2  in C2v )

   1.914874085   1.968763485   0.039206678


 --- MACRO ITERATION  2 ---
 --------------------------

 2-el. integral transformation level 3: Total CPU and WALL times (sec)      53.666      53.668

 Fock matrix screening setting for this macro iteration: 10^( -9)

 Total MCSCF energy       :          -434.285869465298560  (MACRO    2)

 - Nuclear repulsion      :           412.135415267066946
 - Inactive energy        :          -829.006106186040370
 - Active energy          :           -17.415178546325116

 Norm of total gradient   :             0.062566433081
 -    of CI gradient      :             0.055407576372
 -    of orbital gradient :             0.029061297788
      Virial theorem: -V/T =      2.001851
@    MULPOP   C       1.88; C   _1  0.14; C   _2  0.14; C   _1  0.50; C   _2  0.50; C       0.27; N       0.43; O   _1 -0.82; O   _2 -0.82; H   _1 -0.44; 
@             H   _2 -0.44; H   _1 -0.44; H   _2 -0.44; H      -0.44; 

 (SIRNEO) iteration (  2,  7)
 Micro iteration termination criterion met, EVAL(ISTATE+1) = -3.78D-04

   --- OUTPUT FROM SIRCNO     Keyword = FD+NO 


 Occupations of CAS natural orbitals:

 Symmetry  1 ( irrep A1  in C2v )

   1.999732913

 Symmetry  2 ( irrep B1  in C2v )

   1.998547999

 Symmetry  3 ( irrep B2  in C2v )

   1.989364154   0.128937440

 Symmetry  4 ( irrep A2  in C2v )

   1.873309294   1.964045122   0.046063078


 --- MACRO ITERATION  3 ---
 --------------------------

 2-el. integral transformation level 3: Total CPU and WALL times (sec)      53.619      53.621

 Fock matrix screening setting for this macro iteration: 10^( -9)

 Total MCSCF energy       :          -434.288051669979495  (MACRO    3)

 - Nuclear repulsion      :           412.135415267066946
 - Inactive energy        :          -829.462324275454193
 - Active energy          :           -16.961142661592302

 Norm of total gradient   :             0.026538915347
 -    of CI gradient      :             0.014984300906
 -    of orbital gradient :             0.021903989458
      Virial theorem: -V/T =      2.001725
@    MULPOP   C       1.88; C   _1  0.14; C   _2  0.14; C   _1  0.49; C   _2  0.49; C       0.27; N       0.40; O   _1 -0.79; O   _2 -0.79; H   _1 -0.45; 
@             H   _2 -0.45; H   _1 -0.44; H   _2 -0.44; H      -0.44; 

 (SIRNEO) iteration (  3,  8)
 Micro iteration termination criterion met, EVAL(ISTATE+1) = -1.17D-04

   --- OUTPUT FROM SIRCNO     Keyword = FD+NO 


 Occupations of CAS natural orbitals:

 Symmetry  1 ( irrep A1  in C2v )

   1.999772636

 Symmetry  2 ( irrep B1  in C2v )

   1.999086225

 Symmetry  3 ( irrep B2  in C2v )

   1.989491490   0.124655731

 Symmetry  4 ( irrep A2  in C2v )

   1.877033678   1.964796326   0.045163913


 --- MACRO ITERATION  4 ---
 --------------------------

 2-el. integral transformation level 3: Total CPU and WALL times (sec)      53.616      53.617

 Fock matrix screening setting for this macro iteration: 10^( -9)

 Total MCSCF energy       :          -434.288429491706552  (MACRO    4)

 - Nuclear repulsion      :           412.135415267066946
 - Inactive energy        :          -828.479854548784942
 - Active energy          :           -17.943990209988602

 Norm of total gradient   :             0.012830127067
 -    of CI gradient      :             0.009479773871
 -    of orbital gradient :             0.008645579674
      Virial theorem: -V/T =      2.001750
@    MULPOP   C       1.88; C   _1  0.14; C   _2  0.14; C   _1  0.50; C   _2  0.50; C       0.27; N       0.41; O   _1 -0.80; O   _2 -0.80; H   _1 -0.45; 
@             H   _2 -0.45; H   _1 -0.44; H   _2 -0.44; H      -0.45; 

 Residual norm when dim(red L) =  14
 NEO root     CSF        orbital          total
    1     0.00090961     0.00068849     0.00114079 converged

 (NEONEX) NEO vector is converged.

   --- OUTPUT FROM SIRCNO     Keyword = FD+NO 


 Occupations of CAS natural orbitals:

 Symmetry  1 ( irrep A1  in C2v )

   1.999401601

 Symmetry  2 ( irrep B1  in C2v )

   1.999110817

 Symmetry  3 ( irrep B2  in C2v )

   1.989097557   0.126788850

 Symmetry  4 ( irrep A2  in C2v )

   1.875362167   1.964165942   0.046073066


 --- MACRO ITERATION  5 ---
 --------------------------

 2-el. integral transformation level 3: Total CPU and WALL times (sec)      53.600      53.602

 Fock matrix screening setting for this macro iteration: 10^( -9)

 Total MCSCF energy       :          -434.288817712562718  (MACRO    5)

 - Nuclear repulsion      :           412.135415267066946
 - Inactive energy        :          -828.309000278437338
 - Active energy          :           -18.115232701192319

 Norm of total gradient   :             0.007171126713
 -    of CI gradient      :             0.006918481423
 -    of orbital gradient :             0.001886709607
      Virial theorem: -V/T =      2.001740
@    MULPOP   C       1.87; C   _1  0.15; C   _2  0.15; C   _1  0.49; C   _2  0.49; C       0.27; N       0.41; O   _1 -0.80; O   _2 -0.80; H   _1 -0.45; 
@             H   _2 -0.45; H   _1 -0.44; H   _2 -0.44; H      -0.45; 

 Residual norm when dim(red L) =  12
 NEO root     CSF        orbital          total
    1     0.00112864     0.00079526     0.00138068 converged

 (NEONEX) NEO vector is converged.

   --- OUTPUT FROM SIRCNO     Keyword = FD+NO 


 Occupations of CAS natural orbitals:

 Symmetry  1 ( irrep A1  in C2v )

   1.998176554

 Symmetry  2 ( irrep B1  in C2v )

   1.999397538

 Symmetry  3 ( irrep B2  in C2v )

   1.989062030   0.126162514

 Symmetry  4 ( irrep A2  in C2v )

   1.876888549   1.964364483   0.045948332


 --- MACRO ITERATION  6 ---
 --------------------------

 2-el. integral transformation level 3: Total CPU and WALL times (sec)      53.628      53.631

 Fock matrix screening setting for this macro iteration: 10^( -9)

 Total MCSCF energy       :          -434.289087511686716  (MACRO    6)

 - Nuclear repulsion      :           412.135415267066946
 - Inactive energy        :          -828.575576181081715
 - Active energy          :           -17.848926597671912

 Norm of total gradient   :             0.014586269283
 -    of CI gradient      :             0.013931975932
 -    of orbital gradient :             0.004319640981
      Virial theorem: -V/T =      2.001739
@    MULPOP   C       1.87; C   _1  0.15; C   _2  0.15; C   _1  0.49; C   _2  0.49; C       0.27; N       0.41; O   _1 -0.80; O   _2 -0.80; H   _1 -0.45; 
@             H   _2 -0.45; H   _1 -0.44; H   _2 -0.44; H      -0.45; 

 Residual norm when dim(red L) =   9
 NEO root     CSF        orbital          total
    1     0.00136740     0.00067021     0.00152281 converged

 (NEONEX) NEO vector is converged.

   --- OUTPUT FROM SIRCNO     Keyword = FD+NO 


 Occupations of CAS natural orbitals:

 Symmetry  1 ( irrep A1  in C2v )

   1.998608256

 Symmetry  2 ( irrep B1  in C2v )

   1.999464850

 Symmetry  3 ( irrep B2  in C2v )

   1.989101704   0.124939187

 Symmetry  4 ( irrep A2  in C2v )

   1.877616614   1.964446427   0.045822963


 --- MACRO ITERATION  7 ---
 --------------------------

 2-el. integral transformation level 3: Total CPU and WALL times (sec)      54.349      54.351

 Fock matrix screening setting for this macro iteration: 10^( -9)

 Total MCSCF energy       :          -434.289147337040845  (MACRO    7)

 - Nuclear repulsion      :           412.135415267066946
 - Inactive energy        :          -828.451701561165009
 - Active energy          :           -17.972861042942800

 Norm of total gradient   :             0.001820710751
 -    of CI gradient      :             0.001671978687
 -    of orbital gradient :             0.000720746077
      Virial theorem: -V/T =      2.001741
@    MULPOP   C       1.87; C   _1  0.15; C   _2  0.15; C   _1  0.49; C   _2  0.49; C       0.27; N       0.41; O   _1 -0.80; O   _2 -0.80; H   _1 -0.45; 
@             H   _2 -0.45; H   _1 -0.44; H   _2 -0.44; H      -0.45; 

 Residual norm when dim(red L) =  24
 NEO root     CSF        orbital          total
    1     0.00000475     0.00000365     0.00000599 converged

 (NEONEX) NEO vector is converged.

   --- OUTPUT FROM SIRCNO     Keyword = FD+NO 


 Occupations of CAS natural orbitals:

 Symmetry  1 ( irrep A1  in C2v )

   1.998646089

 Symmetry  2 ( irrep B1  in C2v )

   1.999474195

 Symmetry  3 ( irrep B2  in C2v )

   1.989067738   0.125641052

 Symmetry  4 ( irrep A2  in C2v )

   1.876871342   1.964304136   0.045995448


 --- MACRO ITERATION  8 ---
 --------------------------

 2-el. integral transformation level 3: Total CPU and WALL times (sec)      53.692      53.693

 Fock matrix screening setting for this macro iteration: 10^( -9)

 Total MCSCF energy       :          -434.289148705216803  (MACRO    8)

 - Nuclear repulsion      :           412.135415267066946
 - Inactive energy        :          -828.439337245531419
 - Active energy          :           -17.985226726752273

 Norm of total gradient   :             0.000037410615
 -    of CI gradient      :             0.000036237187
 -    of orbital gradient :             0.000009296259
      Virial theorem: -V/T =      2.001740
@    MULPOP   C       1.87; C   _1  0.15; C   _2  0.15; C   _1  0.49; C   _2  0.49; C       0.27; N       0.41; O   _1 -0.80; O   _2 -0.80; H   _1 -0.45; 
@             H   _2 -0.45; H   _1 -0.44; H   _2 -0.44; H      -0.45; 

 Residual norm when dim(red L) =   4
 NEO root     CSF        orbital          total
    1     0.00000291     0.00000626     0.00000690 converged

 (NEONEX) NEO vector is converged.

   --- OUTPUT FROM SIRCNO     Keyword = FD+NO 


 Occupations of CAS natural orbitals:

 Symmetry  1 ( irrep A1  in C2v )

   1.998647528

 Symmetry  2 ( irrep B1  in C2v )

   1.999474120

 Symmetry  3 ( irrep B2  in C2v )

   1.989067954   0.125639216

 Symmetry  4 ( irrep A2  in C2v )

   1.876871811   1.964304232   0.045995139


 --- MACRO ITERATION  9 ---
 --------------------------

 2-el. integral transformation level 3: Total CPU and WALL times (sec)      53.617      53.621

 Fock matrix screening setting for this macro iteration: 10^( -9)

 Total MCSCF energy       :          -434.289148705714979  (MACRO    9)

 - Nuclear repulsion      :           412.135415267066946
 - Inactive energy        :          -828.439101583911679
 - Active energy          :           -17.985462388870204

 Norm of total gradient   :             0.000006903475
 -    of CI gradient      :             0.000002911603
 -    of orbital gradient :             0.000006259436
      Virial theorem: -V/T =      2.001740
@    MULPOP   C       1.87; C   _1  0.15; C   _2  0.15; C   _1  0.49; C   _2  0.49; C       0.27; N       0.41; O   _1 -0.80; O   _2 -0.80; H   _1 -0.45; 
@             H   _2 -0.45; H   _1 -0.44; H   _2 -0.44; H      -0.45; 

 (SIRSTP) Energy difference;
 actual, predicted and ratio:  -0.000000000498176  -0.000000000517563    0.962541
 Close to convergence, ratio set to one.

 *** Optimization control: MCSCF converged ***
     Number of macro iterations used            9
     Number of micro iterations used           71
     Total number of CPU seconds used       862.66

 CPU and wall time for MCSCF :     862.663     862.843


                     .----------------------------------------.
                     | --- SIRIUS OPTIMIZATION STATISTICS --- |
                     `----------------------------------------'


 
     Date and time (Linux)  : Sat Apr 11 17:51:01 2020
     Host name              : n0233.lr3                               


  ITER ITMIC     EMCSCF           GRDNRM        RATIO      STPLNG
 ---------------------------------------------------------------------
    1    3   -434.266378844438   0.5216875757  0.000000   0.1993554276
    2    7   -434.285869465299   0.0625664331  0.999336   0.7654622377
    3    8   -434.288051669979   0.0265389153  0.825770   0.6942449311
    4   12   -434.288429491707   0.0128301271  0.850938   0.6980327170
    5   10   -434.288817712563   0.0071711267  0.842712   0.7673043171
    6    7   -434.289087511687   0.0145862693  0.417155   0.1155470113
    7   22   -434.289147337041   0.0018207108  1.053002   0.0170479442
    8    2   -434.289148705217   0.0000374106  1.009696   0.0001820221
    9    0   -434.289148705715   0.0000069035  1.000000   0.0000000000


  ITER  INDGCM  GCIMAX      GCINRM     INDGOM  GOBMAX      GOBNRM      GRDNRM
 ------------------------------------------------------------------------------
    1     83    0.003505    0.009356   2267    0.064990    0.521604    0.521688
    2     56    0.042746    0.055408   2522    0.005035    0.029061    0.062566
    3      1   -0.013835    0.014984   1874    0.004534    0.021904    0.026539
    4     26    0.007431    0.009480   2522    0.001790    0.008646    0.012830
    5     26   -0.005740    0.006918   2491   -0.000654    0.001887    0.007171
[...]
      ----------------------------------------------------------------
         1    5.36211D+00  3.89D+00  3.69D+00  2.00D+03    4.67316D-01

 ** RSPCTL MICROITERATION NUMBER   71

 *** INFO, negative eigenvalues in reduced matrix. Symmetry  1,  triplet       F Dimension of reduced matrix =   144

 GP * SOLUTION vector at frequency     0.46732 a.u.
 after   72 linear transformations is     -3.53854944D+04
 INERTIA (POS,ZER,NEG) of reduced matrix is  124    0   20
 Determinant of reduced matrix is  6.11 * 10 **-62.0

       No.  Residual tot.,    conf., and orb.    Bnorm      Frequency 
      ----------------------------------------------------------------
         1    7.83882D+00  1.75D+00  7.64D+00  1.98D+03    4.67316D-01

 ** RSPCTL MICROITERATION NUMBER   72

 *** INFO, negative eigenvalues in reduced matrix. Symmetry  1,  triplet       F Dimension of reduced matrix =   146

 GP * SOLUTION vector at frequency     0.46732 a.u.
 after   73 linear transformations is     -3.52282328D+04
 INERTIA (POS,ZER,NEG) of reduced matrix is  126    0   20
 Determinant of reduced matrix is  2.23 * 10 **-63.0

       No.  Residual tot.,    conf., and orb.    Bnorm      Frequency 
      ----------------------------------------------------------------
         1    1.16754D+01  4.71D+00  1.07D+01  1.96D+03    4.67316D-01

 ** RSPCTL MICROITERATION NUMBER   73

 *** INFO, negative eigenvalues in reduced matrix. Symmetry  1,  triplet       F Dimension of reduced matrix =   148

 GP * SOLUTION vector at frequency     0.46732 a.u.
 after   74 linear transformations is     -3.50223813D+04
 INERTIA (POS,ZER,NEG) of reduced matrix is  128    0   20
 Determinant of reduced matrix is  8.67 * 10 **-65.0

       No.  Residual tot.,    conf., and orb.    Bnorm      Frequency 
      ----------------------------------------------------------------
         1    1.62849D+01  9.68D+00  1.31D+01  2.01D+03    4.67316D-01

 ** RSPCTL MICROITERATION NUMBER   74

 *** INFO, negative eigenvalues in reduced matrix. Symmetry  1,  triplet       F Dimension of reduced matrix =   150

 GP * SOLUTION vector at frequency     0.46732 a.u.
 after   75 linear transformations is     -3.48872102D+04
 INERTIA (POS,ZER,NEG) of reduced matrix is  130    0   20
 Determinant of reduced matrix is  1.14 * 10 **-65.0

       No.  Residual tot.,    conf., and orb.    Bnorm      Frequency 
      ----------------------------------------------------------------
         1    1.61833D+01  1.34D+01  9.09D+00  2.08D+03    4.67316D-01

 ** RSPCTL MICROITERATION NUMBER   75

 *** INFO, negative eigenvalues in reduced matrix. Symmetry  1,  triplet       F Dimension of reduced matrix =   152

 GP * SOLUTION vector at frequency     0.46732 a.u.
 after   76 linear transformations is     -3.48111314D+04
 INERTIA (POS,ZER,NEG) of reduced matrix is  132    0   20
 Determinant of reduced matrix is  7.33 * 10 **-66.0

       No.  Residual tot.,    conf., and orb.    Bnorm      Frequency 
      ----------------------------------------------------------------
         1    1.45579D+01  1.00D+01  1.06D+01  2.14D+03    4.67316D-01

 ** RSPCTL MICROITERATION NUMBER   76

 *** INFO, negative eigenvalues in reduced matrix. Symmetry  1,  triplet       F Dimension of reduced matrix =   154

 GP * SOLUTION vector at frequency     0.46732 a.u.
 after   77 linear transformations is     -3.47063013D+04
 INERTIA (POS,ZER,NEG) of reduced matrix is  134    0   20
 Determinant of reduced matrix is  9.57 * 10 **-67.0

       No.  Residual tot.,    conf., and orb.    Bnorm      Frequency 
      ----------------------------------------------------------------
         1    1.47511D+01  1.20D+01  8.52D+00  2.24D+03    4.67316D-01

 ** RSPCTL MICROITERATION NUMBER   77

 *** INFO, negative eigenvalues in reduced matrix. Symmetry  1,  triplet       F Dimension of reduced matrix =   156

 GP * SOLUTION vector at frequency     0.46732 a.u.
 after   78 linear transformations is     -3.45190531D+04
 INERTIA (POS,ZER,NEG) of reduced matrix is  136    0   20
 Determinant of reduced matrix is  7.75 * 10 **-67.0

       No.  Residual tot.,    conf., and orb.    Bnorm      Frequency 
      ----------------------------------------------------------------
         1    1.12294D+01  2.08D+00  1.10D+01  2.45D+03    4.67316D-01

 ** RSPCTL MICROITERATION NUMBER   78

 *** INFO, negative eigenvalues in reduced matrix. Symmetry  1,  triplet       F Dimension of reduced matrix =   158

 GP * SOLUTION vector at frequency     0.46732 a.u.
 after   79 linear transformations is     -3.43805847D+04
 INERTIA (POS,ZER,NEG) of reduced matrix is  138    0   20
 Determinant of reduced matrix is  1.13 * 10 **-68.0

       No.  Residual tot.,    conf., and orb.    Bnorm      Frequency 
      ----------------------------------------------------------------
         1    8.56904D+00  3.70D+00  7.73D+00  2.65D+03    4.67316D-01

 ** RSPCTL MICROITERATION NUMBER   79

 *** INFO, negative eigenvalues in reduced matrix. Symmetry  1,  triplet       F Dimension of reduced matrix =   160

 GP * SOLUTION vector at frequency     0.46732 a.u.
 after   80 linear transformations is     -3.42920103D+04
 INERTIA (POS,ZER,NEG) of reduced matrix is  140    0   20
 Determinant of reduced matrix is  2.77 * 10 **-70.0

       No.  Residual tot.,    conf., and orb.    Bnorm      Frequency 
      ----------------------------------------------------------------
         1    8.82762D+00  4.36D+00  7.67D+00  2.80D+03    4.67316D-01

 ** RSPCTL MICROITERATION NUMBER   80

 *** INFO, negative eigenvalues in reduced matrix. Symmetry  1,  triplet       F Dimension of reduced matrix =   162

 GP * SOLUTION vector at frequency     0.46732 a.u.
 after   81 linear transformations is     -3.42417876D+04
 INERTIA (POS,ZER,NEG) of reduced matrix is  142    0   20
 Determinant of reduced matrix is  1.15 * 10 **-71.0

       No.  Residual tot.,    conf., and orb.    Bnorm      Frequency 
      ----------------------------------------------------------------
         1    7.76818D+00  4.56D+00  6.29D+00  2.87D+03    4.67316D-01

 ** RSPCTL MICROITERATION NUMBER   81

 *** INFO, negative eigenvalues in reduced matrix. Symmetry  1,  triplet       F Dimension of reduced matrix =   164

 GP * SOLUTION vector at frequency     0.46732 a.u.
 after   82 linear transformations is     -3.42135272D+04
 INERTIA (POS,ZER,NEG) of reduced matrix is  144    0   20
 Determinant of reduced matrix is  9.08 * 10 **-73.0

       No.  Residual tot.,    conf., and orb.    Bnorm      Frequency 
      ----------------------------------------------------------------
         1    5.97549D+00  4.69D+00  3.71D+00  2.90D+03    4.67316D-01

 ** RSPCTL MICROITERATION NUMBER   82

 *** INFO, negative eigenvalues in reduced matrix. Symmetry  1,  triplet       F Dimension of reduced matrix =   166

 GP * SOLUTION vector at frequency     0.46732 a.u.
 after   83 linear transformations is     -3.42008609D+04
 INERTIA (POS,ZER,NEG) of reduced matrix is  146    0   20
 Determinant of reduced matrix is  1.68 * 10 **-72.0

       No.  Residual tot.,    conf., and orb.    Bnorm      Frequency 
      ----------------------------------------------------------------
         1    4.22741D+00  1.58D+00  3.92D+00  2.93D+03    4.67316D-01

 ** RSPCTL MICROITERATION NUMBER   83

 *** INFO, negative eigenvalues in reduced matrix. Symmetry  1,  triplet       F Dimension of reduced matrix =   168

 GP * SOLUTION vector at frequency     0.46732 a.u.
 after   84 linear transformations is     -3.41893930D+04
 INERTIA (POS,ZER,NEG) of reduced matrix is  148    0   20
 Determinant of reduced matrix is  7.33 * 10 **-74.0

       No.  Residual tot.,    conf., and orb.    Bnorm      Frequency 
      ----------------------------------------------------------------
         1    2.95825D+00  1.93D+00  2.24D+00  2.93D+03    4.67316D-01

 ** RSPCTL MICROITERATION NUMBER   84

 *** INFO, negative eigenvalues in reduced matrix. Symmetry  1,  triplet       F Dimension of reduced matrix =   170

 GP * SOLUTION vector at frequency     0.46732 a.u.
 after   85 linear transformations is     -3.41859256D+04
 INERTIA (POS,ZER,NEG) of reduced matrix is  150    0   20
 Determinant of reduced matrix is  4.53 * 10 **-75.0

       No.  Residual tot.,    conf., and orb.    Bnorm      Frequency 
      ----------------------------------------------------------------
         1    2.58436D+00  2.05D+00  1.57D+00  2.93D+03    4.67316D-01

 *** THE REQUESTED    1 SOLUTION VECTORS CONVERGED

 Convergence of RSP solution vectors, threshold = 1.00D-03
 ---------------------------------------------------------------
 (dimension of paired reduced space:  170)
 RSP solution vector no.    1; norm of residual   8.83D-04

 *** RSPCTL MICROITERATIONS CONVERGED
    YDIPLEN     YDIPLEN      freq1     freq2                Norm
 ---------------------------------------------------------------
                          0.233658  0.233658       2927.08685698
  Time used in CRVEC2     is     56 minutes 27 seconds


 ----- CALCULATING CONTRIBUTIONS TO SECOND HYPERPOLARIZABILITY -----


   Contribution                Term         Accumulated
 ------------------------------------------------------
 Na T[4] Nb Nc Nd164929514.99421144  164929514.99421144
 Na T[3] Nx Nyz -226473101.80524403  -61543586.81103259
 Na X[3] Ny Nz    12707373.77251538  -48836213.03851722
 Nx A[3] Ny Nz     4235791.25750512  -44600421.78101210
 Na X[2] Nyz     -20173189.23622834  -64773611.01724045
 Nx A[2] Nyz     -20201299.90078183  -84974910.91802229

@ Cubic response function value in a.u. for
@ A operator, symmetry, frequency:   ZDIPLEN    1 -0.233658
@ B operator, symmetry, frequency:   ZDIPLEN    1 -0.233658
@ C operator, symmetry, frequency:   ZDIPLEN    1  0.233658
@ D operator, symmetry, frequency:   ZDIPLEN    1  0.233658

@ << A; B, C, D >>  =   -84974910.91802229



   Contribution                Term         Accumulated
 ------------------------------------------------------
 Na T[4] Nb Nc Nd 43377727.98975133   43377727.98975133
 Na T[3] Nx Nyz  -55746403.60716060  -12368675.61740927
 Na X[3] Ny Nz    -1426733.83929995  -13795409.45670922
 Nx A[3] Ny Nz      514560.54621837  -13280848.91049085
 Na X[2] Nyz     -15473367.14446722  -28754216.05495808
 Nx A[2] Nyz       8659082.04579777  -20095134.00916030

@ Cubic response function value in a.u. for
@ A operator, symmetry, frequency:   XDIPLEN    2 -0.233658
@ B operator, symmetry, frequency:   XDIPLEN    2 -0.233658
@ C operator, symmetry, frequency:   ZDIPLEN    1  0.233658
@ D operator, symmetry, frequency:   ZDIPLEN    1  0.233658

@ << A; B, C, D >>  =   -20095134.00916030



   Contribution                Term         Accumulated
 ------------------------------------------------------
 Na T[4] Nb Nc Nd  -366375.78709257    -366375.78709257
 Na T[3] Nx Nyz     151723.84781199    -214651.93928058
 Na X[3] Ny Nz      726172.38626356     511520.44698298
 Nx A[3] Ny Nz      213840.30695935     725360.75394233
 Na X[2] Nyz         90090.76983441     815451.52377674
 Nx A[2] Nyz       -195699.41153190     619752.11224484

@ Cubic response function value in a.u. for
@ A operator, symmetry, frequency:   YDIPLEN    3 -0.233658
@ B operator, symmetry, frequency:   YDIPLEN    3 -0.233658
@ C operator, symmetry, frequency:   ZDIPLEN    1  0.233658
@ D operator, symmetry, frequency:   ZDIPLEN    1  0.233658

@ << A; B, C, D >>  =      619752.11224484



   Contribution                Term         Accumulated
 ------------------------------------------------------
 Na T[4] Nb Nc Nd 44148740.36355359   44148740.36355359
 Na T[3] Nx Nyz  -57575575.52131392  -13426835.15776033
 Na X[3] Ny Nz     9368262.73185060   -4058572.42590973
 Nx A[3] Ny Nz     2855631.18451333   -1202941.24139640
 Na X[2] Nyz        -73947.70348767   -1276888.94488406
 Nx A[2] Nyz       2788904.66881760    1512015.72393354

@ Cubic response function value in a.u. for
@ A operator, symmetry, frequency:   XDIPLEN    2 -0.233658
@ B operator, symmetry, frequency:   ZDIPLEN    1 -0.233658
@ C operator, symmetry, frequency:   XDIPLEN    2  0.233658
@ D operator, symmetry, frequency:   ZDIPLEN    1  0.233658

@ << A; B, C, D >>  =     1512015.72393354



   Contribution                Term         Accumulated
 ------------------------------------------------------
 Na T[4] Nb Nc Nd  -189784.24620163    -189784.24620163
 Na T[3] Nx Nyz    -358551.23425437    -548335.48045600
 Na X[3] Ny Nz      995508.10615002     447172.62569402
 Nx A[3] Ny Nz      343215.38862818     790388.01432219
 Na X[2] Nyz        105928.28054114     896316.29486333
 Nx A[2] Nyz      -1220149.31504098    -323833.02017765

@ Cubic response function value in a.u. for
@ A operator, symmetry, frequency:   YDIPLEN    3 -0.233658
@ B operator, symmetry, frequency:   ZDIPLEN    1 -0.233658
@ C operator, symmetry, frequency:   YDIPLEN    3  0.233658
@ D operator, symmetry, frequency:   ZDIPLEN    1  0.233658

@ << A; B, C, D >>  =     -323833.02017765



   Contribution                Term         Accumulated
 ------------------------------------------------------
 Na T[4] Nb Nc Nd 32381259.00171444   32381259.00171444
 Na T[3] Nx Nyz  -70020969.46523136  -37639710.46351692
 Na X[3] Ny Nz     1973501.51129419  -35666208.95222273
 Nx A[3] Ny Nz     -332304.65555362  -35998513.60777637
 Na X[2] Nyz      14483072.70792272  -21515440.89985365
 Nx A[2] Nyz       3107707.35393611  -18407733.54591753

@ Cubic response function value in a.u. for
@ A operator, symmetry, frequency:   ZDIPLEN    1 -0.233658
@ B operator, symmetry, frequency:   ZDIPLEN    1 -0.233658
@ C operator, symmetry, frequency:   XDIPLEN    2  0.233658
@ D operator, symmetry, frequency:   XDIPLEN    2  0.233658

@ << A; B, C, D >>  =   -18407733.54591753



   Contribution                Term         Accumulated
 ------------------------------------------------------
 Na T[4] Nb Nc Nd 44238568.07788819   44238568.07788819
 Na T[3] Nx Nyz -178249576.32253748 -134011008.24464929
 Na X[3] Ny Nz    -1954554.86386005 -135965563.10850936
 Nx A[3] Ny Nz     -651518.28795335 -136617081.39646271
 Na X[2] Nyz      13481761.96147681 -123135319.43498591
 Nx A[2] Nyz       4912719.68445760 -118222599.75052829

@ Cubic response function value in a.u. for
@ A operator, symmetry, frequency:   XDIPLEN    2 -0.233658
@ B operator, symmetry, frequency:   XDIPLEN    2 -0.233658
@ C operator, symmetry, frequency:   XDIPLEN    2  0.233658
@ D operator, symmetry, frequency:   XDIPLEN    2  0.233658

@ << A; B, C, D >>  =  -118222599.75052829



   Contribution                Term         Accumulated
 ------------------------------------------------------
 Na T[4] Nb Nc Nd   -54776.01719266     -54776.01719266
 Na T[3] Nx Nyz   -1437799.89329656   -1492575.91048922
 Na X[3] Ny Nz      107183.30027604   -1385392.61021318
 Nx A[3] Ny Nz       46634.17340633   -1338758.43680685
 Na X[2] Nyz        851317.95791206    -487440.47889479
 Nx A[2] Nyz        501144.77086806      13704.29197328

@ Cubic response function value in a.u. for
@ A operator, symmetry, frequency:   YDIPLEN    3 -0.233658
@ B operator, symmetry, frequency:   YDIPLEN    3 -0.233658
@ C operator, symmetry, frequency:   XDIPLEN    2  0.233658
@ D operator, symmetry, frequency:   XDIPLEN    2  0.233658

@ << A; B, C, D >>  =       13704.29197328



   Contribution                Term         Accumulated
 ------------------------------------------------------
 Na T[4] Nb Nc Nd   -11546.00276184     -11546.00276184
 Na T[3] Nx Nyz    -106811.37916933    -118357.38193117
 Na X[3] Ny Nz      213177.53461879      94820.15268762
 Nx A[3] Ny Nz      123918.15172862     218738.30441624
 Na X[2] Nyz         35979.75401232     254718.05842857
 Nx A[2] Nyz       -698863.52342901    -444145.46500044

@ Cubic response function value in a.u. for
@ A operator, symmetry, frequency:   YDIPLEN    3 -0.233658
@ B operator, symmetry, frequency:   XDIPLEN    2 -0.233658
@ C operator, symmetry, frequency:   YDIPLEN    3  0.233658
@ D operator, symmetry, frequency:   XDIPLEN    2  0.233658

@ << A; B, C, D >>  =     -444145.46500044



   Contribution                Term         Accumulated
 ------------------------------------------------------
 Na T[4] Nb Nc Nd    30984.57312895      30984.57312895
 Na T[3] Nx Nyz     525408.02329369     556392.59642264
 Na X[3] Ny Nz      -96791.87215139     459600.72427125
 Nx A[3] Ny Nz       -4046.80225530     455553.92201595
 Na X[2] Nyz         83016.08990978     538570.01192573
 Nx A[2] Nyz         72219.17243167     610789.18435740

@ Cubic response function value in a.u. for
@ A operator, symmetry, frequency:   ZDIPLEN    1 -0.233658
@ B operator, symmetry, frequency:   ZDIPLEN    1 -0.233658
@ C operator, symmetry, frequency:   YDIPLEN    3  0.233658
@ D operator, symmetry, frequency:   YDIPLEN    3  0.233658

@ << A; B, C, D >>  =      610789.18435740



   Contribution                Term         Accumulated
 ------------------------------------------------------
 Na T[4] Nb Nc Nd    -5669.93129728      -5669.93129728
 Na T[3] Nx Nyz    -180119.29116345    -185789.22246072
 Na X[3] Ny Nz       33577.81971213    -152211.40274859
 Nx A[3] Ny Nz         286.19992306    -151925.20282554
 Na X[2] Nyz        103480.79142610     -48444.41139944
 Nx A[2] Nyz         48496.13623952         51.72484008

@ Cubic response function value in a.u. for
@ A operator, symmetry, frequency:   XDIPLEN    2 -0.233658
@ B operator, symmetry, frequency:   XDIPLEN    2 -0.233658
@ C operator, symmetry, frequency:   YDIPLEN    3  0.233658
@ D operator, symmetry, frequency:   YDIPLEN    3  0.233658

@ << A; B, C, D >>  =          51.72484008



   Contribution                Term         Accumulated
 ------------------------------------------------------
 Na T[4] Nb Nc Nd     4011.62116594       4011.62116594
 Na T[3] Nx Nyz      -5495.22568814      -1483.60452220
 Na X[3] Ny Nz        9273.38876104       7789.78423883
 Nx A[3] Ny Nz        3091.12958701      10880.91382584
 Na X[2] Nyz          3492.21872657      14373.13255241
 Nx A[2] Nyz          1124.00675068      15497.13930309

@ Cubic response function value in a.u. for
@ A operator, symmetry, frequency:   YDIPLEN    3 -0.233658
@ B operator, symmetry, frequency:   YDIPLEN    3 -0.233658
@ C operator, symmetry, frequency:   YDIPLEN    3  0.233658
@ D operator, symmetry, frequency:   YDIPLEN    3  0.233658

@ << A; B, C, D >>  =       15497.13930309



  Summary of gamma values for a set of frequencies
 -------------------------------------------------

@ B-freq: -0.233658
@ C-freq:  0.233658
@ D-freq:  0.233658

@ gamma(X;X,X,X)  118222599.7505
@ gamma(X;X,Y,Y)        -51.7248
@ gamma(X;Y,Y,X)     444145.4650
@ gamma(X;Y,X,Y)     444145.4650
@ gamma(X;X,Z,Z)   20095134.0092
@ gamma(X;Z,Z,X)   -1512015.7239
@ gamma(X;Z,X,Z)   -1512015.7239
@ gamma(Y;Y,X,X)     -13704.2920
@ gamma(Y;X,X,Y)     444145.4650
@ gamma(Y;X,Y,X)     444145.4650
@ gamma(Y;Y,Y,Y)     -15497.1393
@ gamma(Y;Y,Z,Z)    -619752.1122
@ gamma(Y;Z,Z,Y)     323833.0202
@ gamma(Y;Z,Y,Z)     323833.0202
@ gamma(Z;Z,X,X)   18407733.5459
@ gamma(Z;X,X,Z)   -1512015.7239
@ gamma(Z;X,Z,X)   -1512015.7239
@ gamma(Z;Z,Y,Y)    -610789.1844
@ gamma(Z;Y,Y,Z)     323833.0202
@ gamma(Z;Y,Z,Y)     323833.0202
@ gamma(Z;Z,Z,Z)   84974910.9180

@ Averaged gamma parallel to the applied field is  42921897.458292

  Total CPU  time used in RESPONSE:   3 hours 35 minutes 44 seconds
  Total wall time used in RESPONSE:   3 hours 35 minutes 51 seconds


                   .-------------------------------------------.
                   | End of Dynamic Property Section (RESPONS) |
                   `-------------------------------------------'

  Total CPU  time used in DALTON:   3 hours 54 minutes 21 seconds
  Total wall time used in DALTON:   3 hours 54 minutes 38 seconds

 
     Date and time (Linux)  : Sat Apr 11 21:26:53 2020
     Host name              : n0233.lr3                               
