

     ************************************************************************
     *************** Dalton - An Electronic Structure Program ***************
     ************************************************************************

    This is output from DALTON release Dalton2016.2 (2016)
         ( Web site: http://daltonprogram.org )

   ----------------------------------------------------------------------------

    NOTE:
     
    Dalton is an experimental code for the evaluation of molecular
    properties using (MC)SCF, DFT, CI, and CC wave functions.
    The authors accept no responsibility for the performance of
    the code or for the correctness of the results.
     
    The code (in whole or part) is provided under a licence and
    is not to be reproduced for further distribution without
    the written permission of the authors or their representatives.
     
    See the home page "http://daltonprogram.org" for further information.
     
    If results obtained with this code are published,
    the appropriate citations would be both of:
     
       K. Aidas, C. Angeli, K. L. Bak, V. Bakken, R. Bast,
       L. Boman, O. Christiansen, R. Cimiraglia, S. Coriani,
       P. Dahle, E. K. Dalskov, U. Ekstroem,
       T. Enevoldsen, J. J. Eriksen, P. Ettenhuber, B. Fernandez,
       L. Ferrighi, H. Fliegl, L. Frediani, K. Hald, A. Halkier,
       C. Haettig, H. Heiberg, T. Helgaker, A. C. Hennum,
       H. Hettema, E. Hjertenaes, S. Hoest, I.-M. Hoeyvik,
       M. F. Iozzi, B. Jansik, H. J. Aa. Jensen, D. Jonsson,
       P. Joergensen, J. Kauczor, S. Kirpekar,
       T. Kjaergaard, W. Klopper, S. Knecht, R. Kobayashi, H. Koch,
       J. Kongsted, A. Krapp, K. Kristensen, A. Ligabue,
       O. B. Lutnaes, J. I. Melo, K. V. Mikkelsen, R. H. Myhre,
       C. Neiss, C. B. Nielsen, P. Norman, J. Olsen,
       J. M. H. Olsen, A. Osted, M. J. Packer, F. Pawlowski,
       T. B. Pedersen, P. F. Provasi, S. Reine, Z. Rinkevicius,
       T. A. Ruden, K. Ruud, V. Rybkin, P. Salek, C. C. M. Samson,
       A. Sanchez de Meras, T. Saue, S. P. A. Sauer,
       B. Schimmelpfennig, K. Sneskov, A. H. Steindal,
       K. O. Sylvester-Hvid, P. R. Taylor, A. M. Teale,
       E. I. Tellgren, D. P. Tew, A. J. Thorvaldsen, L. Thoegersen,
       O. Vahtras, M. A. Watson, D. J. D. Wilson, M. Ziolkowski
       and H. Agren,
       "The Dalton quantum chemistry program system",
       WIREs Comput. Mol. Sci. 2014, 4:269–284 (doi: 10.1002/wcms.1172)
     
    and
     
       Dalton, a Molecular Electronic Structure Program,
       Release Dalton2016.2 (2016), see http://daltonprogram.org
   ----------------------------------------------------------------------------

    Authors in alphabetical order (major contribution(s) in parenthesis):

  Kestutis Aidas,           Vilnius University,           Lithuania   (QM/MM)
  Celestino Angeli,         University of Ferrara,        Italy       (NEVPT2)
  Keld L. Bak,              UNI-C,                        Denmark     (AOSOPPA, non-adiabatic coupling, magnetic properties)
  Vebjoern Bakken,          University of Oslo,           Norway      (DALTON; geometry optimizer, symmetry detection)
  Radovan Bast,             UiT The Arctic U. of Norway,  Norway      (DALTON installation and execution frameworks)
  Pablo Baudin,             University of Valencia,       Spain       (Cholesky excitation energies)
  Linus Boman,              NTNU,                         Norway      (Cholesky decomposition and subsystems)
  Ove Christiansen,         Aarhus University,            Denmark     (CC module)
  Renzo Cimiraglia,         University of Ferrara,        Italy       (NEVPT2)
  Sonia Coriani,            University of Trieste,        Italy       (CC module, MCD in RESPONS)
  Janusz Cukras,            University of Trieste,        Italy       (MChD in RESPONS)
  Paal Dahle,               University of Oslo,           Norway      (Parallelization)
  Erik K. Dalskov,          UNI-C,                        Denmark     (SOPPA)
  Thomas Enevoldsen,        Univ. of Southern Denmark,    Denmark     (SOPPA)
  Janus J. Eriksen,         Aarhus University,            Denmark     (Polarizable embedding model, TDA)
  Rasmus Faber,             University of Copenhagen,     Denmark     (Vib.avg. NMR with SOPPA, parallel AO-SOPPA)
  Berta Fernandez,          U. of Santiago de Compostela, Spain       (doublet spin, ESR in RESPONS)
  Lara Ferrighi,            Aarhus University,            Denmark     (PCM Cubic response)
  Heike Fliegl,             University of Oslo,           Norway      (CCSD(R12))
  Luca Frediani,            UiT The Arctic U. of Norway,  Norway      (PCM)
  Bin Gao,                  UiT The Arctic U. of Norway,  Norway      (Gen1Int library)
  Christof Haettig,         Ruhr-University Bochum,       Germany     (CC module)
  Kasper Hald,              Aarhus University,            Denmark     (CC module)
  Asger Halkier,            Aarhus University,            Denmark     (CC module)
  Frederik Beyer Hansen,    University of Copenhagen,     Denmark     (Parallel AO-SOPPA)
  Erik D. Hedegaard,        Univ. of Southern Denmark,    Denmark     (Polarizable embedding model, QM/MM)
  Hanne Heiberg,            University of Oslo,           Norway      (geometry analysis, selected one-electron integrals)
  Trygve Helgaker,          University of Oslo,           Norway      (DALTON; ABACUS, ERI, DFT modules, London, and much more)
  Alf Christian Hennum,     University of Oslo,           Norway      (Parity violation)
  Hinne Hettema,            University of Auckland,       New Zealand (quadratic response in RESPONS; SIRIUS supersymmetry)
  Eirik Hjertenaes,         NTNU,                         Norway      (Cholesky decomposition)
  Maria Francesca Iozzi,    University of Oslo,           Norway      (RPA)
  Brano Jansik              Technical Univ. of Ostrava    Czech Rep.  (DFT cubic response)
  Hans Joergen Aa. Jensen,  Univ. of Southern Denmark,    Denmark     (DALTON; SIRIUS, RESPONS, ABACUS modules, London, and much more)
  Dan Jonsson,              UiT The Arctic U. of Norway,  Norway      (cubic response in RESPONS module)
  Poul Joergensen,          Aarhus University,            Denmark     (RESPONS, ABACUS, and CC modules)
  Maciej Kaminski,          University of Warsaw,         Poland      (CPPh in RESPONS)
  Joanna Kauczor,           Linkoeping University,        Sweden      (Complex polarization propagator (CPP) module)
  Sheela Kirpekar,          Univ. of Southern Denmark,    Denmark     (Mass-velocity & Darwin integrals)
  Wim Klopper,              KIT Karlsruhe,                Germany     (R12 code in CC, SIRIUS, and ABACUS modules)
  Stefan Knecht,            ETH Zurich,                   Switzerland (Parallel CI and MCSCF)
  Rika Kobayashi,           Australian National Univ.,    Australia   (DIIS in CC, London in MCSCF)
  Henrik Koch,              NTNU,                         Norway      (CC module, Cholesky decomposition)
  Jacob Kongsted,           Univ. of Southern Denmark,    Denmark     (Polarizable embedding model, QM/MM)
  Andrea Ligabue,           University of Modena,         Italy       (CTOCD, AOSOPPA)
  Nanna H. List             Univ. of Southern Denmark,    Denmark     (Polarizable embedding model)
  Ola B. Lutnaes,           University of Oslo,           Norway      (DFT Hessian)
  Juan I. Melo,             University of Buenos Aires,   Argentina   (LRESC, Relativistic Effects on NMR Shieldings)
  Kurt V. Mikkelsen,        University of Copenhagen,     Denmark     (MC-SCRF and QM/MM)
  Rolf H. Myhre,            NTNU,                         Norway      (Cholesky, subsystems and ECC2)
  Christian Neiss,          Univ. Erlangen-Nuernberg,     Germany     (CCSD(R12))
  Christian B. Nielsen,     University of Copenhagen,     Denmark     (QM/MM)
  Patrick Norman,           Linkoeping University,        Sweden      (Cubic response and complex frequency response in RESPONS)
  Jeppe Olsen,              Aarhus University,            Denmark     (SIRIUS CI/density modules)
  Jogvan Magnus H. Olsen,   Univ. of Southern Denmark,    Denmark     (Polarizable embedding model, QM/MM)
  Anders Osted,             Copenhagen University,        Denmark     (QM/MM)
  Martin J. Packer,         University of Sheffield,      UK          (SOPPA)
  Filip Pawlowski,          Kazimierz Wielki University,  Poland      (CC3)
  Morten N. Pedersen,       Univ. of Southern Denmark,    Denmark     (Polarizable embedding model)
  Thomas B. Pedersen,       University of Oslo,           Norway      (Cholesky decomposition)
  Patricio F. Provasi,      University of Northeastern,   Argentina   (Analysis of coupling constants in localized orbitals)
  Zilvinas Rinkevicius,     KTH Stockholm,                Sweden      (open-shell DFT, ESR)
  Elias Rudberg,            KTH Stockholm,                Sweden      (DFT grid and basis info)
  Torgeir A. Ruden,         University of Oslo,           Norway      (Numerical derivatives in ABACUS)
  Kenneth Ruud,             UiT The Arctic U. of Norway,  Norway      (DALTON; ABACUS magnetic properties and much more)
  Pawel Salek,              KTH Stockholm,                Sweden      (DALTON; DFT code)
  Claire C. M. Samson       University of Karlsruhe       Germany     (Boys localization, r12 integrals in ERI)
  Alfredo Sanchez de Meras, University of Valencia,       Spain       (CC module, Cholesky decomposition)
  Trond Saue,               Paul Sabatier University,     France      (direct Fock matrix construction)
  Stephan P. A. Sauer,      University of Copenhagen,     Denmark     (SOPPA(CCSD), SOPPA prop., AOSOPPA, vibrational g-factors)
  Bernd Schimmelpfennig,    Forschungszentrum Karlsruhe,  Germany     (AMFI module)
  Kristian Sneskov,         Aarhus University,            Denmark     (Polarizable embedding model, QM/MM)
  Arnfinn H. Steindal,      UiT The Arctic U. of Norway,  Norway      (parallel QM/MM, Polarizable embedding model)
  Casper Steinmann,         Univ. of Southern Denmark,    Denmark     (QFIT, Polarizable embedding model)
  K. O. Sylvester-Hvid,     University of Copenhagen,     Denmark     (MC-SCRF)
  Peter R. Taylor,          VLSCI/Univ. of Melbourne,     Australia   (Symmetry handling ABACUS, integral transformation)
  Andrew M. Teale,          University of Nottingham,     England     (DFT-AC, DFT-D)
  David P. Tew,             University of Bristol,        England     (CCSD(R12))
  Olav Vahtras,             KTH Stockholm,                Sweden      (triplet response, spin-orbit, ESR, TDDFT, open-shell DFT)
  David J. Wilson,          La Trobe University,          Australia   (DFT Hessian and DFT magnetizabilities)
  Hans Agren,               KTH Stockholm,                Sweden      (SIRIUS module, RESPONS, MC-SCRF solvation model)
 --------------------------------------------------------------------------------

     Date and time (Linux)  : Sat Nov 10 10:55:15 2018
     Host name              : Mechanist                               

 * Work memory size             :    64000000 =  488.28 megabytes.

 * Directories for basis set searches:
   1) /home/Main/dalton/build_gnu_builtin_2016
   2) /home/Main/dalton/build_gnu_builtin_2016/basis


Compilation information
-----------------------

 Who compiled             | Main
 Host                     | Mechanist
 System                   | Linux-4.4.0-17134-Microsoft
 CMake generator          | Unix Makefiles
 Processor                | x86_64
 64-bit integers          | OFF
 MPI                      | OFF
 Fortran compiler         | /home/Main/psi4conda/bin/gfortran
 Fortran compiler version | GNU Fortran (GCC) 5.2.0
 C compiler               | /home/Main/psi4conda/bin/gcc
 C compiler version       | gcc (GCC) 5.2.0
 C++ compiler             | /home/Main/psi4conda/bin/g++
 C++ compiler version     | g++ (GCC) 5.2.0
 Static linking           | OFF
 Last Git revision        | 130ffaa0613bb3af6cac766fc8183d6df7d68917
 Git branch               | release/2016
 Configuration time       | 2018-11-08 14:06:24.912435


   Content of the .dal input file
 ----------------------------------

**DALTON INPUT
.OPTIMIZE
**WAVE FUNCTIONS
.DFT
B3LYP
**END OF DALTON INPUT


   Content of the .mol file
 ----------------------------

BASIS
6-31G*
nitrobenzene
-----------
Atomtypes=4 Angstrom
Charge=6.0 Atoms=6
C_1         -5.51874        3.72297        0.42881
C_2         -4.08599        3.64936        0.15148
C_3         -3.36685        2.39165        0.24797
C_4         -4.09245        1.20301        0.64536
C_5         -5.51448        1.32010        0.92327
C_6         -6.19453        2.60930        0.79458
Charge=1.0 Atoms=5
H_1         -3.55509        4.54592       -0.14940
H_2         -2.31314        2.33917        0.00282
H_3         -3.59136        0.24593        0.71941
H_4         -6.06454        0.43834        1.23299
H_5         -5.98979        4.69580        0.32102
Charge=7.0 Atoms=1
N         -7.63145        2.72782        1.05606
Charge=8.0 Atoms=2
O_a         -8.15148        3.85210        1.00466
O_b         -8.24747        1.68391        1.31646


       *******************************************************************
       *********** Output from DALTON general input processing ***********
       *******************************************************************

 --------------------------------------------------------------------------------
   Overall default print level:    0
   Print level for DALTON.STAT:    1

    "Old" integral transformation used (limited to max 255 basis functions)
 --------------------------------------------------------------------------------


 Chosen parameters for *OPTIMI :
 -------------------------------

 Default 1st order method will be used:   BFGS update.
 Optimization will be performed in redundant internal coordinates (by default).
 Model Hessian will be used as initial Hessian.
 The model Hessian parameters of Roland Lindh will be used.


 Trust region method will be used to control step (default).

 Convergence threshold for gradient set to :      1.00D-04
 Convergence threshold for energy set to   :      1.00D-06
 Convergence threshold for step set to     :      1.00D-04
 Number of convergence criteria set to     :   2


              >>>>>>>>>>>>>>>>>>>>>>>>>>>>>>>>>>>>>>>>>>>>>>>>>>>>>
              >>>>>>>>>> 1st Order Geometry Optimization >>>>>>>>>>
              >>>>>>>>>>>>>>>>>>>>>>>>>>>>>>>>>>>>>>>>>>>>>>>>>>>>>


 Reading .mol file to determine number of atoms for parallel runs.


                      SYMADD: Requested addition of symmetry
                      --------------------------------------

 Symmetry test threshold:  5.00E-06

@   The molecule is centered at center of mass and rotated
@   so principal axes of inertia are along coordinate axes.

 Symmetry class found: C(1)           

 No symmetry elements were found.


   ****************************************************************************
   *************** Output of molecule and basis set information ***************
   ****************************************************************************


    The two title cards from your ".mol" input:
    ------------------------------------------------------------------------
 1: nitrobenzene                                                            
 2: -----------                                                             
    ------------------------------------------------------------------------

  Coordinates are entered in Angstrom and converted to atomic units.
          - Conversion factor : 1 bohr = 0.52917721 A

  Atomic type no.    1
  --------------------
  Nuclear charge:   6.00000
  Number of symmetry independent centers:    6
  Number of basis sets to read;    2
  Basis set file used for this atomic type with Z =   6 :
     "/home/Main/dalton/build_gnu_builtin_2016/basis/6-31G*"

  Info about the basis set file: your basis has no documentation.
  Basis set: 6-31G*                                                                          

  Atomic type no.    2
  --------------------
  Nuclear charge:   1.00000
  Number of symmetry independent centers:    5
  Number of basis sets to read;    2
  Basis set file used for this atomic type with Z =   1 :
     "/home/Main/dalton/build_gnu_builtin_2016/basis/6-31G*"

  Info about the basis set file: your basis has no documentation.
  Basis set: 6-31G*                                                                          

  Atomic type no.    3
  --------------------
  Nuclear charge:   7.00000
  Number of symmetry independent centers:    1
  Number of basis sets to read;    2
  Basis set file used for this atomic type with Z =   7 :
     "/home/Main/dalton/build_gnu_builtin_2016/basis/6-31G*"

  Info about the basis set file: your basis has no documentation.
  Basis set: 6-31G*                                                                          

  Atomic type no.    4
  --------------------
  Nuclear charge:   8.00000
  Number of symmetry independent centers:    2
  Number of basis sets to read;    2
  Basis set file used for this atomic type with Z =   8 :
     "/home/Main/dalton/build_gnu_builtin_2016/basis/6-31G*"

  Info about the basis set file: your basis has no documentation.
  Basis set: 6-31G*                                                                          


                      SYMADD: Requested addition of symmetry
                      --------------------------------------

 Symmetry test threshold:  5.00E-06

@   The molecule is centered at center of mass and rotated
@   so principal axes of inertia are along coordinate axes.

 Symmetry class found: C(1)           

 Symmetry Independent Centres             
 ----------------------------
       8 :     -0.10435797     2.12033709    -4.22325655  Isotope  1
       8 :      0.08887690    -2.01735950    -4.32302770  Isotope  1
       7 :     -0.00237341     0.02538444    -3.17940267  Isotope  1
       6 :      0.01078880    -0.00838741    -0.41058954  Isotope  1
       6 :     -0.03391611    -2.27727354     0.76748130  Isotope  1
       6 :      0.06416063     2.35005587     1.03190183  Isotope  1
       6 :     -0.03614108    -2.39947528     3.52604120  Isotope  1
       6 :      0.04236399     2.30932281     3.77852348  Isotope  1
       6 :     -0.01651466    -0.11531230     5.04627659  Isotope  1
       1 :     -0.07814032    -4.06546875    -0.23945432  Isotope  1
       1 :      0.13070317     4.15541577     0.06453654  Isotope  1
       1 :     -0.08867224    -4.22691872     4.45231847  Isotope  1
       1 :      0.04142824     4.05281763     4.84977155  Isotope  1
       1 :     -0.09268052    -0.22318083     7.08882020  Isotope  1

 No symmetry elements were found.


                         SYMGRP: Point group information
                         -------------------------------

@    Full point group is: C(1)           
@    Represented as:      C1 


                                 Isotopic Masses
                                 ---------------

                           C_1        12.000000
                           C_2        12.000000
                           C_3        12.000000
                           C_4        12.000000
                           C_5        12.000000
                           C_6        12.000000
                           H_1         1.007825
                           H_2         1.007825
                           H_3         1.007825
                           H_4         1.007825
                           H_5         1.007825
                           N          14.003074
                           O_a        15.994915
                           O_b        15.994915

                       Total mass:   123.032029 amu
                       Natural abundance:  92.716 %

 Center-of-mass coordinates (a.u.):    0.000000   -0.000000   -0.000000


  Atoms and basis sets
  --------------------

  Number of atom types :    4
  Total number of atoms:   14

  Basis set used is "6-31G*" from the basis set library.

  label    atoms   charge   prim   cont     basis
  ----------------------------------------------------------------------
  C_          6    6.0000    27    14      [10s4p1d|3s2p1d]                                   
  H_          5    1.0000     4     2      [4s|2s]                                            
  N           1    7.0000    27    14      [10s4p1d|3s2p1d]                                   
  O_          2    8.0000    27    14      [10s4p1d|3s2p1d]                                   
  ----------------------------------------------------------------------
  total:     14   64.0000   263   136
  ----------------------------------------------------------------------
  Spherical harmonic basis used.

  Threshold for neglecting AO integrals:  1.00D-12


   Interatomic separations (in Angstrom):
   --------------------------------------

            C_1         C_2         C_3         C_4         C_5         C_6   
            ------      ------      ------      ------      ------      ------
 C_1   :    0.000000
 C_2   :    1.461199    0.000000
 C_3   :    2.536877    1.452001    0.000000
 C_4   :    2.903687    2.495714    1.448199    0.000000
 C_5   :    2.453221    2.839313    2.493304    1.453655    0.000000
 C_6   :    1.353049    2.437467    2.888240    2.533507    1.463238    0.000000
 H_1   :    2.206240    1.084529    2.198685    3.477851    3.923741    3.407087
 H_2   :    3.517420    2.209456    1.083124    2.206731    3.483434    3.970522
 H_3   :    3.986107    3.485762    2.208342    1.082856    2.212191    3.516769
 H_4   :    3.425405    3.923643    3.473214    2.195260    1.084432    2.218596
 H_5   :    1.086234    2.179044    3.492028    3.988067    3.461788    2.149339
 N     :    2.418121    3.773299    4.353485    3.875338    2.545755    1.465318
 O_a   :    2.698073    4.158994    5.059464    4.860298    3.656695    2.327733
 O_b   :    3.520178    4.747430    5.046089    4.236252    2.784994    2.311551

            H_1         H_2         H_3         H_4         H_5         N     
            ------      ------      ------      ------      ------      ------
 H_1   :    0.000000
 H_2   :    2.536800    0.000000
 H_3   :    4.387033    2.555191    0.000000
 H_4   :    5.008049    4.381721    2.533260    0.000000
 H_5   :    2.484255    4.378665    5.070752    4.354681    0.000000
 N     :    4.623346    5.435511    4.753466    2.779969    2.666135    0.000000
 O_a   :    4.789576    6.113825    5.820698    4.007644    2.419111    1.239790
 O_b   :    5.688434    6.113206    4.909543    2.514676    3.893520    1.239773

            O_a         O_b   
            ------      ------
 O_a   :    0.000000
 O_b   :    2.192597    0.000000


  Max    interatomic separation is    6.1138 Angstrom (   11.5535 Bohr)
  between atoms   13 and    8, "O_a   " and "H_2   ".

  Min HX interatomic separation is    1.0829 Angstrom (    2.0463 Bohr)

  Min YX interatomic separation is    1.2398 Angstrom (    2.3428 Bohr)


  Bond distances (Angstrom):
  --------------------------

                  atom 1     atom 2       distance
                  ------     ------       --------
  bond distance:  C_2        C_1          1.461199
  bond distance:  C_3        C_2          1.452001
  bond distance:  C_4        C_3          1.448199
  bond distance:  C_5        C_4          1.453655
  bond distance:  C_6        C_1          1.353049
  bond distance:  C_6        C_5          1.463238
  bond distance:  H_1        C_2          1.084529
  bond distance:  H_2        C_3          1.083124
  bond distance:  H_3        C_4          1.082856
  bond distance:  H_4        C_5          1.084432
  bond distance:  H_5        C_1          1.086234
  bond distance:  N          C_6          1.465318
  bond distance:  O_a        N            1.239790
  bond distance:  O_b        N            1.239773


  Bond angles (degrees):
  ----------------------

                  atom 1     atom 2     atom 3         angle
                  ------     ------     ------         -----
  bond angle:     C_2        C_1        C_6          119.972
  bond angle:     C_2        C_1        H_5          116.840
  bond angle:     C_6        C_1        H_5          123.188
  bond angle:     C_1        C_2        C_3          121.108
  bond angle:     C_1        C_2        H_1          119.406
  bond angle:     C_3        C_2        H_1          119.476
  bond angle:     C_2        C_3        C_4          118.753
  bond angle:     C_2        C_3        H_2          120.581
  bond angle:     C_4        C_3        H_2          120.648
  bond angle:     C_3        C_4        C_5          118.456
  bond angle:     C_3        C_4        H_3          120.820
  bond angle:     C_5        C_4        H_3          120.717
  bond angle:     C_4        C_5        C_6          120.584
  bond angle:     C_4        C_5        H_4          119.032
  bond angle:     C_6        C_5        H_4          120.383
  bond angle:     C_1        C_6        C_5          121.120
  bond angle:     C_1        C_6        N            118.128
  bond angle:     C_5        C_6        N            120.752
  bond angle:     C_6        N          O_a          118.507
  bond angle:     C_6        N          O_b          117.170
  bond angle:     O_a        N          O_b          124.323




 Principal moments of inertia (u*A**2) and principal axes
 --------------------------------------------------------

   IA     131.020674          0.000000    0.000000    1.000000
   IB     411.239887          0.000000    1.000000   -0.000000
   IC     542.010001          1.000000    0.000000    0.000000


 Rotational constants
 --------------------

               A                   B                   C

           3857.2463           1228.9153            932.4164 MHz
            0.128664            0.040992            0.031102 cm-1


@  Nuclear repulsion energy :  404.600051874502 Hartree


                     .---------------------------------------.
                     | Starting in Integral Section (HERMIT) |
                     `---------------------------------------'



 ***************************************************************************************
 ****************** Output from **INTEGRALS input processing (HERMIT) ******************
 ***************************************************************************************


 - Using defaults, no **INTEGRALS input found

 Default print level:        1

 * Nuclear model: Point charge

 Calculation of one- and two-electron Hamiltonian integrals.

 Center of mass  (bohr):      0.000000000000     -0.000000000000     -0.000000000000
 Operator center (bohr):      0.000000000000      0.000000000000      0.000000000000
 Gauge origin    (bohr):      0.000000000000     -0.000000000000     -0.000000000000
 Dipole origin   (bohr):      0.000000000000     -0.000000000000     -0.000000000000


     ************************************************************************
     ************************** Output from HERINT **************************
     ************************************************************************


 Threshold for neglecting two-electron integrals:  1.00D-12
 HERMIT - Number of two-electron integrals written:    33638771 ( 77.5% )
 HERMIT - Megabytes written:                            385.182

  Time used in TWOINT     is       9.09 seconds
  Total CPU  time used in HERMIT:   9.23 seconds
  Total wall time used in HERMIT:   9.31 seconds


                        .----------------------------------.
                        | End of Integral Section (HERMIT) |
                        `----------------------------------'



                   .--------------------------------------------.
                   | Starting in Wave Function Section (SIRIUS) |
                   `--------------------------------------------'


 *** Output from Huckel module :

     Using EWMO model:          T
     Using EHT  model:          F
     Number of Huckel orbitals each symmetry:   50

 EWMO - Energy Weighted Maximum Overlap - is a Huckel type method,
        which normally is better than Extended Huckel Theory.
 Reference: Linderberg and Ohrn, Propagators in Quantum Chemistry (Wiley, 1973)

 Huckel EWMO eigenvalues for symmetry :  1
          -20.684736     -20.683406     -15.676896     -11.360992     -11.353119
          -11.351438     -11.347174     -11.346892     -11.344256      -1.995055
           -1.809541      -1.512981      -1.372092      -1.347473      -1.025103
           -0.988486      -0.915267      -0.883384      -0.823830      -0.722844
           -0.683062      -0.668450      -0.618150      -0.586483      -0.570549
           -0.537193      -0.498846      -0.488618      -0.482427      -0.467816
           -0.418795      -0.414023      -0.348230      -0.260126      -0.243322
           -0.230189      -0.203657      -0.186833      -0.168009      -0.134801
           -0.132367      -0.130444      -0.126368      -0.118414      -0.110533
           -0.105656      -0.100681      -0.097623      -0.087441      -0.079125

 **********************************************************************
 *SIRIUS* a direct, restricted step, second order MCSCF program       *
 **********************************************************************

 
     Date and time (Linux)  : Sat Nov 10 10:55:25 2018
     Host name              : Mechanist                               

 Title lines from ".mol" input file:
     nitrobenzene                                                            
     -----------                                                             

 Print level on unit LUPRI =   2 is   0
 Print level on unit LUW4  =   2 is   5

@    Restricted, closed shell Kohn-Sham DFT calculation.

 Initial molecular orbitals are obtained according to
 ".MOSTART EWMO  " input option

     Wave function specification
     ============================
@    Wave function type        --- KS-DFT ---
@    Number of closed shell electrons          64
@    Number of electrons in active shells       0
@    Total charge of the molecule               0

@    Spin multiplicity and 2 M_S                1         0
@    Total number of symmetries                 1 (point group: C1 )
@    Reference state symmetry                   1 (irrep name : A  )
 
     This is a DFT calculation of type: B3LYP
 Weighted mixed functional:
               HF exchange:    0.20000
                       VWN:    0.19000
                       LYP:    0.81000
                     Becke:    0.72000
                    Slater:    0.80000

     Orbital specifications
     ======================
@    Abelian symmetry species          All |    1
@                                          |  A  
                                       --- |  ---
@    Occupied SCF orbitals              32 |   32
@    Secondary orbitals                104 |  104
@    Total number of orbitals          136 |  136
@    Number of basis functions         136 |  136

     Optimization information
     ========================
@    Number of configurations                 1
@    Number of orbital rotations           3328
     ------------------------------------------
@    Total number of variables             3329

     Maximum number of Fock   iterations      0
     Maximum number of DIIS   iterations     60
     Maximum number of QC-SCF iterations     60
     Threshold for SCF convergence     1.00D-05
 
     This is a DFT calculation of type: B3LYP
 Weighted mixed functional:
               HF exchange:    0.20000
                       VWN:    0.19000
                       LYP:    0.81000
                     Becke:    0.72000
                    Slater:    0.80000


 ***********************************************
 ***** DIIS acceleration of SCF iterations *****
 ***********************************************

 C1-DIIS algorithm; max error vectors =    8

 Iter      Total energy        Error norm    Delta(E)  DIIS dim.
 -----------------------------------------------------------------------------
      K-S energy, electrons, error :    -46.167984681216  64.0000368674    3.69D-05
@  1    -434.731949768        5.38864D+00   -4.35D+02    1
      Virial theorem: -V/T =      2.013979
@      MULPOP C_1     0.16; C_2     0.18; C_3     0.24; C_4     0.20; C_5     0.09; C_6     0.54; H_1    -0.19; H_2    -0.19; H_3    -0.19; H_4    -0.21; 
@             H_5    -0.22; N       1.49; O_a    -0.95; O_b    -0.96; 
   1  Level shift: doubly occupied orbital energies shifted by -2.00D-01
 -----------------------------------------------------------------------------
      K-S energy, electrons, error :    -47.259078400957  64.0000171005    1.71D-05
@  2    -434.128832738        7.11331D+00    6.03D-01    2
      Virial theorem: -V/T =      1.994977
@      MULPOP C_1    -0.33; C_2    -0.21; C_3    -0.20; C_4    -0.21; C_5    -0.23; C_6    -0.60; H_1     0.28; H_2     0.28; H_3     0.28; H_4     0.31; 
@             H_5     0.32; N      -1.51; O_a     0.91; O_b     0.93; 
   2  Level shift: doubly occupied orbital energies shifted by -2.00D-01
 -----------------------------------------------------------------------------
      K-S energy, electrons, error :    -47.204670095916  64.0000159125    1.59D-05
@  3    -436.390916032        1.10341D+00   -2.26D+00    3
      Virial theorem: -V/T =      2.001891
@      MULPOP C_1    -0.31; C_2    -0.27; C_3    -0.27; C_4    -0.27; C_5    -0.27; C_6     0.29; H_1     0.26; H_2     0.26; H_3     0.26; H_4     0.26; 
@             H_5     0.27; N       0.26; O_a    -0.25; O_b    -0.23; 
   3  Level shift: doubly occupied orbital energies shifted by -5.00D-02
 -----------------------------------------------------------------------------
      K-S energy, electrons, error :    -46.866192981856  64.0000162386    1.62D-05
@  4    -436.465123097        5.75193D-01   -7.42D-02    4
      Virial theorem: -V/T =      2.008550
@      MULPOP C_1    -0.10; C_2    -0.07; C_3    -0.01; C_4    -0.04; C_5    -0.11; C_6     0.16; H_1     0.10; H_2     0.10; H_3     0.11; H_4     0.14; 
@             H_5     0.15; N       0.29; O_a    -0.35; O_b    -0.36; 
   4  Level shift: doubly occupied orbital energies shifted by -5.00D-02
 -----------------------------------------------------------------------------
      K-S energy, electrons, error :    -46.916301962578  64.0000165903    1.66D-05
@  5    -436.485505844        1.59866D-01   -2.04D-02    5
      Virial theorem: -V/T =      2.007817
@      MULPOP C_1    -0.15; C_2    -0.16; C_3    -0.14; C_4    -0.15; C_5    -0.13; C_6     0.30; H_1     0.15; H_2     0.16; H_3     0.16; H_4     0.17; 
@             H_5     0.18; N       0.38; O_a    -0.40; O_b    -0.36; 
   5  Level shift: doubly occupied orbital energies shifted by -2.50D-02
 -----------------------------------------------------------------------------
      K-S energy, electrons, error :    -46.944434574515  64.0000163105    1.63D-05
@  6    -436.486725738        8.40458D-02   -1.22D-03    6
      Virial theorem: -V/T =      2.007231
@      MULPOP C_1    -0.17; C_2    -0.14; C_3    -0.11; C_4    -0.13; C_5    -0.17; C_6     0.27; H_1     0.15; H_2     0.15; H_3     0.16; H_4     0.18; 
@             H_5     0.19; N       0.38; O_a    -0.37; O_b    -0.39; 
   6  Level shift: doubly occupied orbital energies shifted by -2.50D-02
 -----------------------------------------------------------------------------
      K-S energy, electrons, error :    -46.943584187369  64.0000163255    1.63D-05
@  7    -436.487013724        4.12369D-02   -2.88D-04    7
      Virial theorem: -V/T =      2.007246
@      MULPOP C_1    -0.16; C_2    -0.14; C_3    -0.11; C_4    -0.14; C_5    -0.15; C_6     0.27; H_1     0.15; H_2     0.15; H_3     0.16; H_4     0.18; 
@             H_5     0.19; N       0.37; O_a    -0.39; O_b    -0.37; 
   7  Level shift: doubly occupied orbital energies shifted by -1.25D-02
 -----------------------------------------------------------------------------
      K-S energy, electrons, error :    -46.940723053511  64.0000163323    1.63D-05
@  8    -436.487086949        1.39386D-02   -7.32D-05    8
      Virial theorem: -V/T =      2.007308
@      MULPOP C_1    -0.16; C_2    -0.15; C_3    -0.12; C_4    -0.14; C_5    -0.15; C_6     0.27; H_1     0.15; H_2     0.15; H_3     0.16; H_4     0.18; 
@             H_5     0.19; N       0.37; O_a    -0.38; O_b    -0.38; 
 -----------------------------------------------------------------------------
      K-S energy, electrons, error :    -46.940192046906  64.0000163328    1.63D-05
@  9    -436.487098524        4.42620D-03   -1.16D-05    8
      Virial theorem: -V/T =      2.007321
@      MULPOP C_1    -0.16; C_2    -0.14; C_3    -0.12; C_4    -0.14; C_5    -0.15; C_6     0.27; H_1     0.15; H_2     0.15; H_3     0.16; H_4     0.18; 
@             H_5     0.19; N       0.37; O_a    -0.38; O_b    -0.37; 
 -----------------------------------------------------------------------------
      K-S energy, electrons, error :    -46.940739341265  64.0000163324    1.63D-05
@ 10    -436.487099746        6.09002D-04   -1.22D-06    8
      Virial theorem: -V/T =      2.007309
@      MULPOP C_1    -0.16; C_2    -0.14; C_3    -0.12; C_4    -0.14; C_5    -0.15; C_6     0.27; H_1     0.15; H_2     0.15; H_3     0.16; H_4     0.18; 
@             H_5     0.19; N       0.37; O_a    -0.38; O_b    -0.37; 
 -----------------------------------------------------------------------------
      K-S energy, electrons, error :    -46.940702713836  64.0000163323    1.63D-05
@ 11    -436.487099763        2.81256D-04   -1.72D-08    8
      Virial theorem: -V/T =      2.007309
@      MULPOP C_1    -0.16; C_2    -0.14; C_3    -0.12; C_4    -0.14; C_5    -0.15; C_6     0.27; H_1     0.15; H_2     0.15; H_3     0.16; H_4     0.18; 
@             H_5     0.19; N       0.37; O_a    -0.38; O_b    -0.37; 
 -----------------------------------------------------------------------------
      K-S energy, electrons, error :    -46.940700043835  64.0000163324    1.63D-05
@ 12    -436.487099767        1.69519D-04   -3.55D-09    8
      Virial theorem: -V/T =      2.007309
@      MULPOP C_1    -0.16; C_2    -0.14; C_3    -0.12; C_4    -0.14; C_5    -0.15; C_6     0.27; H_1     0.15; H_2     0.15; H_3     0.16; H_4     0.18; 
@             H_5     0.19; N       0.37; O_a    -0.38; O_b    -0.37; 
 -----------------------------------------------------------------------------
      K-S energy, electrons, error :    -46.940704987299  64.0000163324    1.63D-05
@ 13    -436.487099769        3.51122D-05   -1.70D-09    8
      Virial theorem: -V/T =      2.007309
@      MULPOP C_1    -0.16; C_2    -0.14; C_3    -0.12; C_4    -0.14; C_5    -0.15; C_6     0.27; H_1     0.15; H_2     0.15; H_3     0.16; H_4     0.18; 
@             H_5     0.19; N       0.37; O_a    -0.38; O_b    -0.37; 
 -----------------------------------------------------------------------------
      K-S energy, electrons, error :    -46.940705130609  64.0000163324    1.63D-05
@ 14    -436.487099769        1.99460D-05   -6.76D-11    8
      Virial theorem: -V/T =      2.007309
@      MULPOP C_1    -0.16; C_2    -0.14; C_3    -0.12; C_4    -0.14; C_5    -0.15; C_6     0.27; H_1     0.15; H_2     0.15; H_3     0.16; H_4     0.18; 
@             H_5     0.19; N       0.37; O_a    -0.38; O_b    -0.37; 
 -----------------------------------------------------------------------------
      K-S energy, electrons, error :    -46.940703417595  64.0000163324    1.63D-05
@ 15    -436.487099769        5.17023D-06   -2.55D-11    8

@ *** DIIS converged in  15 iterations !
@     Converged SCF energy, gradient:   -436.487099768706    5.17D-06
    - total time used in SIRFCK :              0.00 seconds


 *** SCF orbital energy analysis ***

 Only the 20 lowest virtual orbital energies printed in each symmetry.

 Number of electrons :   64
 Orbital occupations :   32

 Sym       Kohn-Sham orbital energies

1 A     -19.17481516   -19.17375181   -14.56470048   -10.25330985   -10.22690721
        -10.22432237   -10.22262590   -10.22060344   -10.21725222    -1.21366261
         -1.04172623    -0.87394010    -0.79881435    -0.75657276    -0.69782667
         -0.62854268    -0.59324559    -0.55410402    -0.52459335    -0.50985368
         -0.50554545    -0.47197128    -0.45726583    -0.43663575    -0.38654430
         -0.37587300    -0.37321166    -0.30471297    -0.30443669    -0.28672691
         -0.28074320    -0.26311170    -0.08984280    -0.03653449    -0.00265748
          0.07760503     0.12475965     0.12685981     0.13388063     0.16106750
          0.16547278     0.17648819     0.24545213     0.25772398     0.26465163
          0.27080120     0.31268027     0.37142293     0.44678513     0.45768272
          0.50108982     0.51327597

    E(LUMO) :    -0.08984280 au (symmetry 1)
  - E(HOMO) :    -0.26311170 au (symmetry 1)
  ------------------------------------------
    gap     :     0.17326890 au

 --- Writing SIRIFC interface file

 CPU and wall time for SCF :     212.984     214.244


                       .-----------------------------------.
                       | --- Final results from SIRIUS --- |
                       `-----------------------------------'


@    Spin multiplicity:           1
@    Spatial symmetry:            1 ( irrep  A   in C1  )
@    Total charge of molecule:    0

@    Final DFT energy:           -436.487099768706                 
@    Nuclear repulsion:           404.600051874502
@    Electronic energy:          -841.087151643208

@    Final gradient norm:           0.000005170232

 
     Date and time (Linux)  : Sat Nov 10 10:58:59 2018
     Host name              : Mechanist                               

File label for MO orbitals:  10Nov18   FOCKDIIS

 (Only coefficients > 0.0100 are printed.)

 Molecular orbitals for symmetry species 1  (A  )
 ------------------------------------------------

    Orbital        23       24       25       26       27       28       29
   1 C_1 :1s     0.0049  -0.0199   0.0118  -0.0012  -0.0022   0.0002  -0.0015
   2 C_1 :1s    -0.0029   0.0437  -0.0290   0.0043   0.0106   0.0016  -0.0009
   3 C_1 :1s    -0.1121   0.0872  -0.0112  -0.0028  -0.0116  -0.0120   0.0236
   4 C_1 :2px   -0.0038   0.0034   0.0185   0.2361  -0.0428   0.0310   0.0226
   5 C_1 :2py   -0.1293   0.1446  -0.0300   0.0398   0.2138  -0.0288   0.0562
   6 C_1 :2pz    0.1969   0.1996  -0.2507   0.0320   0.0348   0.0114  -0.0353
   7 C_1 :2px   -0.0037   0.0017   0.0099   0.1344  -0.0253   0.0419   0.0273
   8 C_1 :2py   -0.1043   0.0729   0.0049   0.0105   0.0670  -0.0387   0.0621
   9 C_1 :2pz    0.1250   0.0467  -0.0897   0.0064  -0.0078   0.0358  -0.0609
  11 C_1 :3d1-   0.0039  -0.0006   0.0025  -0.0042  -0.0189  -0.0007   0.0024
  15 C_2 :1s     0.0005  -0.0190  -0.0049   0.0004   0.0017  -0.0015   0.0041
  16 C_2 :1s    -0.0030   0.0429   0.0077  -0.0018  -0.0090   0.0052  -0.0123
  17 C_2 :1s    -0.0035   0.0730   0.0215   0.0043   0.0176  -0.0157   0.0187
  18 C_2 :2px   -0.0025   0.0061   0.0186   0.2022  -0.0455   0.0190   0.0100
  19 C_2 :2py   -0.1467   0.2393   0.0087  -0.0558  -0.2443   0.0072  -0.0156
  20 C_2 :2pz   -0.1954  -0.1888   0.2430  -0.0373  -0.0725  -0.0179   0.0479
  21 C_2 :2px   -0.0002   0.0020   0.0120   0.1235  -0.0266   0.0044   0.0024
  22 C_2 :2py   -0.0237   0.0816   0.0104  -0.0184  -0.0743   0.0033  -0.0005
  23 C_2 :2pz   -0.0515  -0.0524   0.0799  -0.0173  -0.0454   0.0031   0.0070
  25 C_2 :3d1-  -0.0038   0.0054  -0.0010  -0.0032  -0.0176   0.0016  -0.0033
  26 C_2 :3d0    0.0026   0.0077  -0.0136   0.0008  -0.0034   0.0003  -0.0011
  29 C_3 :1s     0.0068  -0.0075  -0.0115   0.0011   0.0011  -0.0022   0.0038
  30 C_3 :1s    -0.0144   0.0163   0.0324  -0.0029  -0.0024   0.0042  -0.0067
  31 C_3 :1s    -0.0229   0.0262   0.0201  -0.0031  -0.0021   0.0107  -0.0270
  32 C_3 :2px    0.0021   0.0003   0.0305   0.1945  -0.0349  -0.0072  -0.0070
  33 C_3 :2py    0.2383  -0.0560   0.0492   0.0500   0.2872  -0.0007   0.0027
  34 C_3 :2pz    0.0498  -0.0484  -0.2998   0.0413   0.0292  -0.0015  -0.0042
  35 C_3 :2px    0.0006   0.0007   0.0150   0.1165  -0.0218  -0.0040  -0.0047
  36 C_3 :2py    0.1022   0.0175   0.0136   0.0185   0.1125   0.0019  -0.0021
  37 C_3 :2pz    0.0193  -0.0151  -0.0806   0.0140   0.0101  -0.0080   0.0118
  39 C_3 :3d1-  -0.0046   0.0111   0.0012  -0.0022  -0.0110  -0.0001   0.0001
  40 C_3 :3d0   -0.0008   0.0006  -0.0224   0.0020  -0.0001   0.0007  -0.0022
  43 C_4 :1s    -0.0044   0.0203  -0.0065  -0.0004  -0.0044  -0.0011   0.0036
  44 C_4 :1s     0.0098  -0.0447   0.0125   0.0024   0.0161   0.0044  -0.0107
  45 C_4 :1s     0.0157  -0.0766   0.0233  -0.0055  -0.0146  -0.0154   0.0137
  46 C_4 :2px   -0.0057   0.0007   0.0162   0.1948  -0.0408  -0.0278  -0.0211
  47 C_4 :2py   -0.0902   0.1436  -0.0930  -0.0420  -0.2454  -0.0035   0.0066
  48 C_4 :2pz    0.2208   0.1773   0.2449  -0.0175   0.0092  -0.0174   0.0458
  49 C_4 :2px   -0.0014   0.0008   0.0103   0.1183  -0.0243  -0.0127  -0.0106
  50 C_4 :2py   -0.0100   0.0573  -0.0402  -0.0134  -0.0734   0.0006  -0.0065
  51 C_4 :2pz    0.0698   0.0407   0.0888   0.0003   0.0262  -0.0002   0.0126
  53 C_4 :3d1-   0.0012   0.0015  -0.0000  -0.0038  -0.0193  -0.0014   0.0029
  54 C_4 :3d0   -0.0028  -0.0076  -0.0125   0.0017   0.0027  -0.0000  -0.0006
  57 C_5 :1s     0.0054   0.0163   0.0108  -0.0012   0.0001   0.0009  -0.0035
  58 C_5 :1s    -0.0174  -0.0378  -0.0277   0.0017  -0.0052  -0.0008   0.0043
  59 C_5 :1s     0.0765  -0.0695  -0.0085   0.0047   0.0072   0.0026   0.0121
  60 C_5 :2px   -0.0055   0.0079   0.0235   0.2084  -0.0332  -0.0286  -0.0201
  61 C_5 :2py   -0.1805   0.2325   0.0638   0.0292   0.2163   0.0263  -0.0508
  62 C_5 :2pz   -0.2091  -0.1828  -0.2501   0.0273   0.0190   0.0133  -0.0410
  63 C_5 :2px   -0.0042   0.0028   0.0127   0.1219  -0.0209  -0.0351  -0.0230
  64 C_5 :2py   -0.1128   0.0885   0.0048   0.0113   0.0737   0.0262  -0.0423
  65 C_5 :2pz   -0.1209  -0.0472  -0.0820   0.0168   0.0333   0.0252  -0.0435
  67 C_5 :3d1-   0.0085  -0.0065  -0.0054  -0.0030  -0.0184   0.0004  -0.0014
  71 C_6 :1s    -0.0136   0.0145  -0.0231   0.0027   0.0047  -0.0132   0.0289
  72 C_6 :1s     0.0290  -0.0314   0.0525  -0.0060  -0.0100   0.0262  -0.0645
  73 C_6 :1s     0.0811  -0.0604   0.0488  -0.0084  -0.0250   0.1204  -0.2121
  74 C_6 :2px    0.0028  -0.0021   0.0215   0.2456  -0.0545   0.0053   0.0061
  75 C_6 :2py    0.2752  -0.0578  -0.0158  -0.0478  -0.2322   0.0037  -0.0083
  76 C_6 :2pz    0.0325  -0.0257   0.0208  -0.0044  -0.0141  -0.0926   0.2103
  77 C_6 :2px   -0.0017   0.0003   0.0126   0.1431  -0.0307  -0.0018   0.0018
  78 C_6 :2py   -0.0766   0.0349   0.0047  -0.0117  -0.0527  -0.0126   0.0172
  79 C_6 :2pz   -0.0020  -0.0076  -0.0551   0.0041  -0.0047  -0.0475   0.0964
  81 C_6 :3d1-   0.0058  -0.0122   0.0014  -0.0021  -0.0097   0.0000   0.0001
  82 C_6 :3d0    0.0011   0.0014  -0.0163   0.0018   0.0012   0.0035  -0.0082
  83 C_6 :3d1+   0.0001  -0.0000   0.0009   0.0100  -0.0021   0.0001  -0.0000
  85 H_1 :1s     0.0255  -0.1659   0.0798   0.0201   0.1367  -0.0108   0.0251
  86 H_1 :1s     0.0267  -0.1488   0.0772   0.0213   0.1409  -0.0136   0.0329
  87 H_2 :1s     0.0142  -0.0196  -0.2047   0.0223   0.0098   0.0029  -0.0106
  88 H_2 :1s     0.0128  -0.0188  -0.2090   0.0235   0.0097   0.0044  -0.0137
  89 H_3 :1s     0.0279   0.1118   0.0448  -0.0330  -0.1481  -0.0090   0.0210
  90 H_3 :1s     0.0154   0.1027   0.0419  -0.0335  -0.1547  -0.0114   0.0283
  91 H_4 :1s    -0.0434   0.1615   0.1046   0.0157   0.1321   0.0027   0.0004
  92 H_4 :1s    -0.0235   0.1365   0.0957   0.0138   0.1284  -0.0135   0.0238
  93 H_5 :1s     0.0068  -0.1167   0.0849  -0.0377  -0.1457   0.0027   0.0004
  94 H_5 :1s    -0.0018  -0.0970   0.0769  -0.0344  -0.1408  -0.0174   0.0344
  95 N   :1s     0.0019  -0.0039   0.0146  -0.0019  -0.0023  -0.0018   0.0053
  96 N   :1s    -0.0030   0.0094  -0.0338   0.0045   0.0057   0.0032  -0.0068
  97 N   :1s    -0.0212   0.0196  -0.0994   0.0117   0.0122   0.0221  -0.0779
  98 N   :2px   -0.0064  -0.0049  -0.0078  -0.0741   0.0130  -0.0022  -0.0022
  99 N   :2py   -0.1553  -0.0056   0.0074   0.0054   0.0306  -0.0029   0.0068
 100 N   :2pz   -0.0119   0.0259  -0.1080   0.0140   0.0177   0.0537  -0.1259
 101 N   :2px   -0.0085  -0.0031  -0.0051  -0.0504   0.0105  -0.0006   0.0002
 102 N   :2py    0.0616   0.0003  -0.0037  -0.0045  -0.0131   0.0045  -0.0088
 103 N   :2pz   -0.0102   0.0151  -0.0741   0.0093   0.0093  -0.0213   0.0335
 104 N   :3d2-   0.0001  -0.0000   0.0008  -0.0007  -0.0000  -0.0441  -0.0223
 105 N   :3d1-   0.0127   0.0033  -0.0017  -0.0019  -0.0067   0.0004  -0.0009
 106 N   :3d0    0.0008  -0.0019   0.0072  -0.0010  -0.0007   0.0187  -0.0426
 107 N   :3d1+   0.0004  -0.0001   0.0012   0.0133  -0.0029  -0.0007  -0.0003
 108 N   :3d2+   0.0009  -0.0007   0.0026  -0.0003  -0.0004   0.0166  -0.0259
 109 O_a :1s     0.0211  -0.0045   0.0060  -0.0018  -0.0061  -0.0003   0.0007
 110 O_a :1s    -0.0489   0.0116  -0.0143   0.0039   0.0147  -0.0008   0.0014
 111 O_a :1s    -0.0320   0.0144  -0.0248   0.0055   0.0121  -0.0069   0.0181
 112 O_a :2px   -0.0154  -0.0031  -0.0145  -0.0897   0.0232   0.4238   0.1905
 113 O_a :2py    0.1370   0.0079   0.0490  -0.0229  -0.0331   0.0570  -0.0771
 114 O_a :2pz    0.0651  -0.0099  -0.0522   0.0022  -0.0301  -0.1819   0.4121
 115 O_a :2px   -0.0101  -0.0016  -0.0092  -0.0552   0.0148   0.3055   0.1370
 116 O_a :2py    0.0940   0.0062   0.0282  -0.0141  -0.0214   0.0369  -0.0460
 117 O_a :2pz    0.0483  -0.0073  -0.0302   0.0008  -0.0229  -0.1265   0.2900
 118 O_a :3d2-  -0.0013  -0.0003  -0.0009  -0.0057   0.0014   0.0155   0.0070
 119 O_a :3d1-   0.0087   0.0009  -0.0028  -0.0001  -0.0012  -0.0039   0.0107
 121 O_a :3d1+  -0.0008  -0.0001  -0.0003  -0.0021   0.0006   0.0125   0.0048
 123 O_b :1s    -0.0218   0.0036   0.0068   0.0002   0.0038  -0.0001   0.0000
 124 O_b :1s     0.0501  -0.0098  -0.0160   0.0000  -0.0090  -0.0017   0.0037
 125 O_b :1s     0.0364  -0.0107  -0.0225   0.0007  -0.0046  -0.0108   0.0261
 126 O_b :2px   -0.0162  -0.0035  -0.0015  -0.0929   0.0219  -0.4294  -0.1874
 127 O_b :2py    0.1329   0.0324  -0.0604  -0.0098  -0.0195  -0.0320   0.0141
 128 O_b :2pz   -0.0716   0.0443  -0.0527   0.0104   0.0375  -0.1637   0.3738
 129 O_b :2px   -0.0105  -0.0019  -0.0003  -0.0577   0.0140  -0.3097  -0.1349
 130 O_b :2py    0.0916   0.0210  -0.0367  -0.0065  -0.0133  -0.0190   0.0012
 131 O_b :2pz   -0.0483   0.0272  -0.0294   0.0064   0.0258  -0.1146   0.2651
 132 O_b :3d2-   0.0014   0.0004   0.0001   0.0059  -0.0013   0.0166   0.0073
 133 O_b :3d1-   0.0085  -0.0006   0.0027  -0.0009  -0.0020   0.0040  -0.0110
 135 O_b :3d1+  -0.0008   0.0000  -0.0001  -0.0020   0.0006  -0.0118  -0.0044

    Orbital        30       31       32       33       34       35       36
   1 C_1 :1s     0.0152   0.0037   0.0003   0.0011  -0.0005   0.0000   0.0326
   2 C_1 :1s    -0.0335  -0.0082  -0.0004  -0.0031   0.0021   0.0006  -0.0607
   3 C_1 :1s    -0.0621  -0.0194  -0.0042  -0.0144  -0.0070  -0.0171  -0.3851
   4 C_1 :2px    0.0510  -0.2371   0.1996   0.1693   0.3013  -0.1178   0.0067
   5 C_1 :2py    0.0005   0.0061  -0.0043  -0.0089  -0.0075  -0.0018   0.0925
   6 C_1 :2pz    0.0648   0.0201   0.0019  -0.0003   0.0006   0.0042   0.0599
   7 C_1 :2px    0.0354  -0.1571   0.1493   0.1951   0.3689  -0.1718   0.0099
   8 C_1 :2py    0.0559   0.0160  -0.0038  -0.0159  -0.0173  -0.0183   0.2018
   9 C_1 :2pz   -0.0567  -0.0133  -0.0014   0.0051  -0.0005   0.0030   0.3226
  10 C_1 :3d2-   0.0026  -0.0105  -0.0047  -0.0055   0.0029   0.0177   0.0006
  11 C_1 :3d1-  -0.0013  -0.0004  -0.0004   0.0002   0.0002   0.0001   0.0205
  12 C_1 :3d0    0.0044   0.0010   0.0003  -0.0000   0.0001   0.0000  -0.0115
  13 C_1 :3d1+  -0.0030   0.0085   0.0132   0.0077  -0.0188  -0.0163   0.0002
  14 C_1 :3d2+   0.0026   0.0002  -0.0000  -0.0003   0.0003   0.0009  -0.0115
  15 C_2 :1s    -0.0087  -0.0020  -0.0009  -0.0005   0.0005   0.0002   0.0507
  16 C_2 :1s     0.0153   0.0032   0.0017   0.0012  -0.0011  -0.0013  -0.0855
  17 C_2 :1s     0.0811   0.0227   0.0060  -0.0005  -0.0007   0.0102  -0.7685
  18 C_2 :2px   -0.0331   0.0675   0.3367   0.0713  -0.3304  -0.1843  -0.0020
  19 C_2 :2py    0.0044  -0.0013  -0.0071  -0.0005   0.0063   0.0018   0.1236
  20 C_2 :2pz   -0.0457  -0.0131  -0.0010   0.0005  -0.0025  -0.0029  -0.0294
  21 C_2 :2px   -0.0245   0.0473   0.2466   0.0820  -0.4080  -0.2385  -0.0012
  22 C_2 :2py   -0.0168  -0.0036  -0.0053  -0.0006   0.0118   0.0153   0.3029
  23 C_2 :2pz   -0.0655  -0.0173  -0.0012   0.0019  -0.0051  -0.0024  -0.0414
  24 C_2 :3d2-  -0.0024   0.0082   0.0028  -0.0077   0.0028   0.0156   0.0008
  25 C_2 :3d1-  -0.0002  -0.0002   0.0002   0.0003   0.0005   0.0003  -0.0143
  27 C_2 :3d1+  -0.0033   0.0136  -0.0036  -0.0133  -0.0143   0.0165  -0.0004
  29 C_3 :1s     0.0005  -0.0002  -0.0006   0.0007  -0.0007  -0.0013   0.0340
  30 C_3 :1s    -0.0013   0.0002   0.0013  -0.0016   0.0019   0.0037  -0.0616
  31 C_3 :1s     0.0005   0.0005   0.0021  -0.0016   0.0019  -0.0013  -0.5079
  32 C_3 :2px   -0.0875   0.2997   0.1366  -0.2184   0.0311   0.3384   0.0093
  33 C_3 :2py    0.0211  -0.0009  -0.0001   0.0023  -0.0019  -0.0067   0.0099
  34 C_3 :2pz    0.0005   0.0122   0.0042  -0.0062   0.0000   0.0100  -0.1352
  35 C_3 :2px   -0.0610   0.2123   0.1012  -0.2311   0.0368   0.4556   0.0201
  36 C_3 :2py   -0.0098  -0.0063  -0.0011   0.0053  -0.0023  -0.0058   0.0174
  37 C_3 :2pz   -0.0038   0.0078   0.0040  -0.0101   0.0041   0.0262  -0.3422
  38 C_3 :3d2-  -0.0012   0.0065  -0.0163  -0.0015   0.0281  -0.0035   0.0001
  40 C_3 :3d0    0.0004   0.0002   0.0001  -0.0001  -0.0002   0.0001   0.0156
  41 C_3 :3d1+   0.0016  -0.0048  -0.0026  -0.0044   0.0026   0.0119  -0.0002
  43 C_4 :1s     0.0076   0.0022   0.0008   0.0002  -0.0008   0.0007   0.0496
  44 C_4 :1s    -0.0121  -0.0039  -0.0017  -0.0001   0.0015  -0.0024  -0.0832
  45 C_4 :1s    -0.0809  -0.0215  -0.0035  -0.0039   0.0081   0.0076  -0.7607
  46 C_4 :2px   -0.0711   0.2732  -0.2031   0.0292   0.3065  -0.2478  -0.0011
  47 C_4 :2py    0.0010  -0.0012   0.0020  -0.0008  -0.0038   0.0040  -0.1130
  48 C_4 :2pz    0.0369   0.0129  -0.0024   0.0023   0.0039  -0.0032  -0.0374
  49 C_4 :2px   -0.0518   0.1930  -0.1512   0.0362   0.3756  -0.3290  -0.0026
  50 C_4 :2py   -0.0179  -0.0068   0.0001   0.0049  -0.0045  -0.0007  -0.2797
  51 C_4 :2pz    0.0614   0.0191  -0.0015   0.0015   0.0052  -0.0110  -0.0438
  52 C_4 :3d2-   0.0026  -0.0086  -0.0052   0.0086  -0.0007  -0.0167  -0.0003
  53 C_4 :3d1-   0.0001  -0.0002  -0.0007   0.0009  -0.0007  -0.0005   0.0153
  55 C_4 :3d1+  -0.0015   0.0048   0.0136  -0.0135   0.0182   0.0105   0.0007
  57 C_5 :1s    -0.0130  -0.0039  -0.0009  -0.0006  -0.0002  -0.0015   0.0290
  58 C_5 :1s     0.0297   0.0087   0.0024   0.0008   0.0007   0.0041  -0.0555
  59 C_5 :1s     0.0648   0.0227   0.0027   0.0142   0.0016   0.0067  -0.3202
  60 C_5 :2px    0.0049   0.0084  -0.3360   0.1888  -0.3290  -0.0352  -0.0064
  61 C_5 :2py    0.0047  -0.0017   0.0116  -0.0108   0.0102  -0.0035  -0.0857
  62 C_5 :2pz   -0.0567  -0.0146  -0.0031  -0.0017  -0.0041   0.0004   0.0513
  63 C_5 :2px    0.0058   0.0084  -0.2411   0.2118  -0.3993  -0.0399  -0.0136
  64 C_5 :2py    0.0507   0.0103   0.0107  -0.0221   0.0144  -0.0051  -0.1983
  65 C_5 :2pz    0.0612   0.0159  -0.0002  -0.0049  -0.0038  -0.0120   0.3121
  66 C_5 :3d2-  -0.0019   0.0080   0.0031   0.0046  -0.0015  -0.0152   0.0005
  67 C_5 :3d1-  -0.0005  -0.0002  -0.0000  -0.0000   0.0000   0.0005  -0.0185
  68 C_5 :3d0   -0.0035  -0.0009  -0.0002   0.0000   0.0004  -0.0002  -0.0133
  69 C_5 :3d1+  -0.0042   0.0148  -0.0041   0.0055   0.0158  -0.0208  -0.0004
  70 C_5 :3d2+  -0.0021  -0.0003   0.0001   0.0001  -0.0001  -0.0005  -0.0120
  71 C_6 :1s    -0.0018  -0.0000  -0.0005   0.0003  -0.0011   0.0005   0.0298
  72 C_6 :1s     0.0046   0.0001   0.0012  -0.0006   0.0021  -0.0017  -0.0694
  73 C_6 :1s    -0.0021  -0.0022   0.0050  -0.0015   0.0175   0.0078  -0.0984
  74 C_6 :2px    0.0816  -0.2996  -0.1246  -0.1513   0.0335   0.3123  -0.0004
  75 C_6 :2py    0.0398   0.0190   0.0027   0.0051   0.0007  -0.0078  -0.0116
  76 C_6 :2pz   -0.0139   0.0028  -0.0042   0.0007  -0.0034  -0.0009   0.1504
  77 C_6 :2px    0.0556  -0.1965  -0.0931  -0.1796   0.0124   0.3675   0.0012
  78 C_6 :2py    0.0692   0.0172   0.0011  -0.0193  -0.0049  -0.0301  -0.0163
  79 C_6 :2pz    0.0032   0.0040   0.0003  -0.0016   0.0001   0.0071   0.0750
  80 C_6 :3d2-  -0.0018   0.0097  -0.0176   0.0002  -0.0315   0.0043  -0.0006
  82 C_6 :3d0    0.0019   0.0004   0.0000  -0.0001  -0.0003   0.0000   0.0318
  83 C_6 :3d1+   0.0001  -0.0015  -0.0009   0.0276   0.0015   0.0095   0.0002
  85 H_1 :1s    -0.0082  -0.0030  -0.0011  -0.0005   0.0006  -0.0008   0.0675
  86 H_1 :1s    -0.0166  -0.0045  -0.0016  -0.0011   0.0019  -0.0002   0.8351
  87 H_2 :1s     0.0015   0.0019   0.0004   0.0014  -0.0013  -0.0038   0.0541
  88 H_2 :1s     0.0026   0.0024  -0.0001   0.0044  -0.0057  -0.0148   0.7538
  89 H_3 :1s     0.0069   0.0018  -0.0014   0.0019  -0.0023   0.0009   0.0654
  90 H_3 :1s     0.0126   0.0038  -0.0008   0.0022  -0.0065   0.0048   0.7977
  91 H_4 :1s     0.0252   0.0054   0.0015   0.0003  -0.0016  -0.0012   0.0832
  92 H_4 :1s    -0.0312  -0.0090  -0.0012   0.0081  -0.0053  -0.0002   0.6736
  93 H_5 :1s    -0.0292  -0.0081  -0.0015   0.0010  -0.0013  -0.0016   0.0870
  94 H_5 :1s     0.0265   0.0062  -0.0010  -0.0037  -0.0081  -0.0153   0.7247
  95 N   :1s    -0.0016  -0.0003  -0.0001  -0.0002   0.0008  -0.0003  -0.0488
  96 N   :1s     0.0032   0.0006   0.0003   0.0006  -0.0005   0.0003   0.1268
  97 N   :1s     0.0201   0.0044   0.0004   0.0004  -0.0137   0.0066   0.4510
  98 N   :2px   -0.0058   0.0107  -0.0007  -0.4014  -0.0716  -0.3522   0.0011
  99 N   :2py    0.0321   0.0071   0.0003  -0.0188  -0.0034  -0.0178  -0.0039
 100 N   :2pz    0.0156   0.0020   0.0015   0.0025  -0.0013   0.0022   0.1257
 101 N   :2px    0.0011   0.0075   0.0006  -0.3034  -0.0542  -0.3024   0.0004
 102 N   :2py   -0.0815  -0.0175  -0.0017  -0.0031   0.0001  -0.0099  -0.0190
 103 N   :2pz    0.0005   0.0009  -0.0005   0.0016  -0.0016   0.0035   0.0232
 105 N   :3d1-  -0.0388  -0.0104  -0.0014  -0.0010  -0.0002  -0.0016   0.0002
 107 N   :3d1+   0.0068  -0.0176  -0.0075  -0.0297  -0.0012   0.0032  -0.0002
 109 O_a :1s     0.0042   0.0008   0.0003  -0.0002   0.0000   0.0004   0.0150
 110 O_a :1s    -0.0143  -0.0028  -0.0010   0.0001  -0.0011  -0.0015  -0.0369
 111 O_a :1s    -0.0446  -0.0088  -0.0010   0.0061   0.0049   0.0006  -0.1426
 112 O_a :2px   -0.0227   0.1443  -0.0064   0.3211   0.0180   0.1886   0.0036
 113 O_a :2py   -0.3123  -0.0777  -0.0082   0.0157   0.0028   0.0068  -0.0393
 114 O_a :2pz    0.3125   0.0962   0.0052  -0.0002  -0.0016  -0.0058  -0.0714
 115 O_a :2px   -0.0158   0.1022  -0.0024   0.2873   0.0311   0.1873   0.0051
 116 O_a :2py   -0.2243  -0.0552  -0.0056   0.0157   0.0048   0.0081  -0.0889
 117 O_a :2pz    0.2037   0.0637   0.0035   0.0012   0.0013  -0.0043  -0.0874
 120 O_a :3d0    0.0156   0.0043   0.0004   0.0001   0.0002   0.0001   0.0006
 123 O_b :1s    -0.0039  -0.0010   0.0002   0.0003   0.0002  -0.0005   0.0132
 124 O_b :1s     0.0136   0.0037  -0.0009  -0.0003  -0.0013   0.0022  -0.0337
 125 O_b :1s     0.0370   0.0080   0.0001  -0.0065   0.0020  -0.0011  -0.1147
 126 O_b :2px   -0.0079   0.0749   0.0986   0.3244   0.0692   0.1790  -0.0046
 127 O_b :2py   -0.3002  -0.0744  -0.0067   0.0161   0.0005   0.0076   0.0473
 128 O_b :2pz   -0.3878  -0.1007  -0.0216  -0.0034  -0.0029   0.0052  -0.0592
 129 O_b :2px   -0.0055   0.0544   0.0687   0.2905   0.0502   0.1837  -0.0052
 130 O_b :2py   -0.2147  -0.0526  -0.0048   0.0162  -0.0005   0.0093   0.0881
 131 O_b :2pz   -0.2600  -0.0679  -0.0145  -0.0044  -0.0001   0.0027  -0.0675
 134 O_b :3d0   -0.0161  -0.0042  -0.0005   0.0000   0.0002  -0.0001   0.0006

    Orbital        37       38       39       40       41       42
   1 C_1 :1s    -0.0076  -0.0216  -0.0049   0.0173  -0.0304   0.1071
   2 C_1 :1s    -0.0031   0.0145   0.0071  -0.0950   0.0382  -0.2104
   3 C_1 :1s     0.3057   0.6146   0.0011   0.6161   0.5020  -1.2649
   4 C_1 :2px   -0.2775   0.1399   0.0281   0.0086  -0.0077   0.0077
   5 C_1 :2py   -0.0628  -0.1499   0.0514   0.0362  -0.1206   0.1406
   6 C_1 :2pz   -0.0771  -0.1414  -0.0128  -0.0015   0.0259  -0.0014
   7 C_1 :2px   -0.4745   0.2442   0.0501   0.0333  -0.0178   0.0307
   8 C_1 :2py   -0.0969  -0.2899   0.0076   0.8073  -0.3768   0.8615
   9 C_1 :2pz   -0.2460  -0.5050   0.0851   0.3504   0.0499   0.1262
  10 C_1 :3d2-   0.0173  -0.0097  -0.0020   0.0000  -0.0001  -0.0005
  11 C_1 :3d1-  -0.0053  -0.0112   0.0071   0.0033  -0.0077  -0.0160
  12 C_1 :3d0    0.0110   0.0173   0.0118   0.0025  -0.0048   0.0142
  15 C_2 :1s    -0.0232  -0.0426   0.0277  -0.0652   0.0638  -0.0552
  16 C_2 :1s     0.0371   0.0579  -0.0175   0.1486  -0.0952   0.1133
  17 C_2 :1s     0.3608   0.8082  -0.7762   0.3393  -1.0443   0.6003
  18 C_2 :2px    0.2388  -0.1285  -0.0202  -0.0106   0.0048  -0.0067
  19 C_2 :2py   -0.0238  -0.0774   0.2082  -0.0695  -0.0136  -0.0508
  20 C_2 :2pz   -0.0209  -0.0168  -0.1125   0.1151  -0.0761  -0.1199
  21 C_2 :2px    0.3917  -0.2198  -0.0341  -0.0405   0.0130  -0.0249
  22 C_2 :2py   -0.0633  -0.1365   0.4838  -0.7805   0.0374  -0.6568
  23 C_2 :2pz    0.0551   0.1219  -0.1617   0.6902  -0.2247  -0.3336
  24 C_2 :3d2-  -0.0101   0.0058   0.0015   0.0004  -0.0002   0.0007
  25 C_2 :3d1-   0.0009   0.0047  -0.0070  -0.0108   0.0115   0.0007
  26 C_2 :3d0   -0.0049  -0.0059  -0.0054  -0.0015   0.0035  -0.0235
  28 C_2 :3d2+  -0.0019  -0.0034   0.0006   0.0102  -0.0002  -0.0049
  29 C_3 :1s     0.0300   0.0417   0.0518   0.0884  -0.0392  -0.0340
  30 C_3 :1s    -0.0424  -0.0504  -0.0721  -0.1980   0.0523   0.0186
  31 C_3 :1s    -0.5140  -0.8217  -0.8965  -0.6715   0.8049   1.0459
  32 C_3 :2px   -0.2241   0.1254   0.0328   0.0116  -0.0027   0.0086
  33 C_3 :2py    0.0123   0.0058   0.0068  -0.0130  -0.0771   0.0951
  34 C_3 :2pz   -0.1022  -0.1413  -0.1886  -0.0347  -0.0248  -0.0252
  35 C_3 :2px   -0.3582   0.2128   0.0629   0.0429  -0.0099   0.0237
  36 C_3 :2py    0.0963   0.1734  -0.1608   0.0227  -0.2898   0.4004
  37 C_3 :2pz   -0.2669  -0.3030  -0.5508  -0.9221  -0.0689  -0.3196
  39 C_3 :3d1-  -0.0008  -0.0037   0.0035  -0.0019  -0.0206   0.0122
  40 C_3 :3d0    0.0033   0.0051   0.0053  -0.0070   0.0076   0.0135
  41 C_3 :3d1+  -0.0138   0.0070   0.0014   0.0006  -0.0007   0.0001
  42 C_3 :3d2+   0.0025   0.0041   0.0032  -0.0175   0.0048   0.0044
  43 C_4 :1s     0.0119   0.0351  -0.0533  -0.0773  -0.0466   0.0373
  44 C_4 :1s    -0.0113  -0.0457   0.0828   0.1783   0.0928  -0.0256
  45 C_4 :1s    -0.2905  -0.6924   0.9004   0.4446   0.5844  -0.9943
  46 C_4 :2px    0.2290  -0.1202  -0.0266  -0.0081   0.0013  -0.0037
  47 C_4 :2py   -0.0848  -0.1770   0.1001   0.0393   0.0128   0.0199
  48 C_4 :2pz   -0.0493  -0.1027   0.0009   0.0953  -0.1425  -0.1471
  49 C_4 :2px    0.3751  -0.2026  -0.0528  -0.0147   0.0134   0.0011
  50 C_4 :2py   -0.2169  -0.5235   0.2759   0.7570   0.3863   0.3095
  51 C_4 :2pz   -0.0659  -0.2046   0.2238   0.7106  -0.4734  -0.3911
  52 C_4 :3d2-   0.0104  -0.0059  -0.0015  -0.0010   0.0004  -0.0002
  53 C_4 :3d1-   0.0052   0.0102  -0.0038   0.0122  -0.0000  -0.0145
  54 C_4 :3d0   -0.0018  -0.0013  -0.0086  -0.0028  -0.0213  -0.0071
  56 C_4 :3d2+   0.0001  -0.0003  -0.0038   0.0114  -0.0071  -0.0006
  57 C_5 :1s    -0.0096  -0.0163  -0.0130   0.0447   0.1205   0.0318
  58 C_5 :1s     0.0165   0.0384  -0.0133  -0.1321  -0.2098  -0.0803
  59 C_5 :1s     0.0991   0.0337   0.6322   0.0455  -1.7141  -0.2456
  60 C_5 :2px   -0.2574   0.1329   0.0352  -0.0001  -0.0055   0.0096
  61 C_5 :2py   -0.0229  -0.0874   0.1758  -0.0978  -0.1075   0.0992
  62 C_5 :2pz   -0.0265  -0.0128  -0.1325   0.0168   0.0364   0.0561
  63 C_5 :2px   -0.4098   0.2142   0.0622  -0.0155  -0.0203   0.0109
  64 C_5 :2py    0.0096   0.0056   0.2648  -0.9395  -0.5483   0.0630
  65 C_5 :2pz   -0.0319   0.0187  -0.4810   0.4208   0.0679   0.2046
  66 C_5 :3d2-  -0.0163   0.0081   0.0012   0.0009  -0.0002   0.0001
  67 C_5 :3d1-  -0.0050  -0.0114   0.0098  -0.0029   0.0141   0.0171
  68 C_5 :3d0    0.0061   0.0072   0.0185   0.0064   0.0165   0.0070
  71 C_6 :1s     0.0009   0.0052  -0.0136   0.0035  -0.0679  -0.0923
  72 C_6 :1s    -0.0027  -0.0147   0.0245   0.0370   0.1122   0.1672
  73 C_6 :1s    -0.0658  -0.0826   0.0720  -0.8466   0.7785   0.7563
  74 C_6 :2px    0.3326  -0.1783  -0.0339  -0.0067   0.0051  -0.0056
  75 C_6 :2py   -0.0287  -0.0428   0.0427   0.0199   0.1329   0.0006
  76 C_6 :2pz   -0.1017  -0.1586  -0.1758   0.0727  -0.1246  -0.1823
  77 C_6 :2px    0.4884  -0.2566  -0.0565  -0.0103   0.0135  -0.0098
  78 C_6 :2py    0.0501   0.1520  -0.1655   0.1194   0.1334   0.1833
  79 C_6 :2pz   -0.1245  -0.1136  -0.2950  -0.7343  -0.3422  -0.7135
  81 C_6 :3d1-   0.0090   0.0168  -0.0146  -0.0010  -0.0140  -0.0001
  82 C_6 :3d0   -0.0106  -0.0158  -0.0206   0.0071  -0.0144  -0.0186
  84 C_6 :3d2+  -0.0047  -0.0083  -0.0070   0.0131   0.0054   0.0087
  85 H_1 :1s    -0.0089  -0.0188   0.0341  -0.0565   0.0092  -0.0136
  86 H_1 :1s    -0.2271  -0.5746   1.0428  -1.2834   0.6001  -0.6311
  87 H_2 :1s     0.0328   0.0379   0.0495   0.0467   0.0173   0.0404
  88 H_2 :1s     0.6009   0.8420   1.1434   1.2398  -0.2106   0.0167
  89 H_3 :1s     0.0187   0.0473  -0.0304  -0.0573  -0.0098  -0.0187
  90 H_3 :1s     0.4424   1.0568  -0.8093  -1.3177  -0.2623   0.3830
  91 H_4 :1s    -0.0107  -0.0072  -0.0594   0.0698   0.0288  -0.0438
  92 H_4 :1s    -0.0563   0.0206  -0.9226   1.1137   1.3824   0.0172
  93 H_5 :1s    -0.0331  -0.0666  -0.0117   0.0526  -0.0558   0.0240
  94 H_5 :1s    -0.4350  -0.9383   0.0577   0.6623  -0.6649   1.4578
  95 N   :1s     0.0220   0.0328   0.0463  -0.0164   0.0558   0.0767
  96 N   :1s    -0.0550  -0.0823  -0.1110   0.0486  -0.1304  -0.1789
  97 N   :1s    -0.2428  -0.3507  -0.5621   0.0458  -0.6900  -0.9901
  98 N   :2px   -0.1614   0.0898   0.0120   0.0018  -0.0100   0.0007
  99 N   :2py   -0.0167  -0.0035   0.0133   0.0073   0.0513   0.0051
 100 N   :2pz   -0.0421  -0.0560  -0.0870  -0.0210  -0.1343  -0.1929
 101 N   :2px   -0.1665   0.0961   0.0106   0.0010  -0.0154   0.0015
 102 N   :2py   -0.0728  -0.1017   0.1242   0.0060   0.2244  -0.0960
 103 N   :2pz   -0.0245  -0.0065  -0.0696  -0.2630  -0.2438  -0.4151
 106 N   :3d0    0.0034   0.0056   0.0080  -0.0030   0.0097   0.0145
 107 N   :3d1+   0.0158  -0.0080  -0.0018  -0.0002   0.0014  -0.0010
 108 N   :3d2+  -0.0042  -0.0069  -0.0077   0.0062  -0.0086  -0.0118
 109 O_a :1s    -0.0039  -0.0087  -0.0134   0.0138  -0.0237  -0.0017
 110 O_a :1s     0.0093   0.0216   0.0274  -0.0318   0.0622   0.0069
 111 O_a :1s     0.0221   0.0507   0.1904  -0.1584   0.2448  -0.0074
 112 O_a :2px    0.0663  -0.0402  -0.0082   0.0021  -0.0033  -0.0019
 113 O_a :2py    0.0144   0.0146   0.0744  -0.0275   0.0405   0.1278
 114 O_a :2pz    0.0075   0.0190   0.0575  -0.0224   0.1290   0.0457
 115 O_a :2px    0.0690  -0.0418  -0.0116   0.0045  -0.0047  -0.0003
 116 O_a :2py    0.0293   0.0447   0.1273  -0.1063   0.1193   0.0698
 117 O_a :2pz    0.0133   0.0295   0.0972  -0.0270   0.1867   0.0644
 119 O_a :3d1-  -0.0003   0.0001  -0.0007  -0.0031   0.0029  -0.0142
 123 O_b :1s    -0.0073  -0.0108  -0.0099   0.0180   0.0080  -0.0125
 124 O_b :1s     0.0157   0.0216   0.0248  -0.0442  -0.0214   0.0323
 125 O_b :1s     0.0969   0.1566   0.0620  -0.1782  -0.0949   0.1383
 126 O_b :2px    0.0613  -0.0303  -0.0008  -0.0062   0.0003   0.0046
 127 O_b :2py   -0.0378  -0.0642  -0.0336   0.0180  -0.0896  -0.0639
 128 O_b :2pz    0.0302   0.0397   0.0263  -0.0409  -0.0296   0.0806
 129 O_b :2px    0.0713  -0.0322  -0.0014  -0.0077   0.0001   0.0056
 130 O_b :2py   -0.0630  -0.1100  -0.0679   0.1122  -0.0174  -0.0999
 131 O_b :2pz    0.0481   0.0653   0.0413  -0.0452  -0.0270   0.1285
 133 O_b :3d1-   0.0007   0.0008   0.0005   0.0049   0.0122   0.0026

  Total CPU  time used in SIRIUS :  3 minutes 33 seconds
  Total wall time used in SIRIUS :  3 minutes 35 seconds

 
     Date and time (Linux)  : Sat Nov 10 10:58:59 2018
     Host name              : Mechanist                               


                     .---------------------------------------.
                     | End of Wave Function Section (SIRIUS) |
                     `---------------------------------------'


 Center of mass dipole origin  :    0.000000   -0.000000   -0.000000

 Center of mass gauge origin   :    0.000000   -0.000000   -0.000000


                 .------------------------------------------------.
                 | Starting in Static Property Section (ABACUS) - |
                 `------------------------------------------------'


 
     Date and time (Linux)  : Sat Nov 10 10:58:59 2018
     Host name              : Mechanist                               


   ***************************************************************************
   ************************ FINAL RESULTS from ABACUS ************************
   ***************************************************************************


 
     Date and time (Linux)  : Sat Nov 10 11:01:26 2018
     Host name              : Mechanist                               


                             Molecular geometry (au)
                             -----------------------

 C_1       -0.0339161109           -2.2772735396            0.7674812970
 C_2       -0.0361410763           -2.3994752751            3.5260412000
 C_3       -0.0165146621           -0.1153122994            5.0462765923
 C_4        0.0423639911            2.3093228121            3.7785234846
 C_5        0.0641606261            2.3500558695            1.0319018305
 C_6        0.0107888041           -0.0083874144           -0.4105895383
 H_1       -0.0886722387           -4.2269187204            4.4523184736
 H_2       -0.0926805150           -0.2231808325            7.0888202033
 H_3        0.0414282391            4.0528176297            4.8497715498
 H_4        0.1307031726            4.1554157691            0.0645365409
 H_5       -0.0781403248           -4.0654687475           -0.2394543247
 N         -0.0023734148            0.0253844384           -3.1794026697
 O_a        0.0888768968           -2.0173594967           -4.3230276978
 O_b       -0.1043579724            2.1203370862           -4.2232565506





                        Molecular wave function and energy
                        ----------------------------------

     Spatial symmetry   1 ( A   )
     Spin multiplicity  1
     2 * M_S            0
     State number       1
     Total charge       0

     Total energy       -436.4870997687 au (Hartrees)
                        -11877.41817450 eV
                          -1145996.7038 kJ/mol
                           -273899.7858 kcal/mol


                   Scalar Breit-Pauli relativistic corrections
                   -------------------------------------------

     Darwin correction:                          0.8576718797 au
     Mass-velocity correction:                  -1.0764743923 au

     Total relativistic correction:             -0.2188025126 au ( 0.0501%)
     Non-relativistic + relativistic energy:  -436.7059022813 au



      (Note that these corrections are NOT included in the results below.)


                             Molecular gradient (au)
                             -----------------------

 C_1        0.0001957436            0.0351725333           -0.0657901757
 C_2        0.0006856384           -0.0424102227            0.0125492293
 C_3        0.0008208084            0.0064046305            0.0502474691
 C_4        0.0011738244            0.0425404925            0.0381432540
 C_5        0.0006189852            0.0240942207           -0.0244407737
 C_6       -0.0016793700           -0.0542548271           -0.0177481789
 H_1       -0.0001130001            0.0006814866            0.0009119432
 H_2       -0.0012408975            0.0007325784           -0.0014939686
 H_3       -0.0006834933           -0.0018138393            0.0011424346
 H_4        0.0008281380            0.0027242370            0.0028412094
 H_5       -0.0003094806           -0.0047955140            0.0037952969
 N         -0.0004196491           -0.0081380313            0.0141143533
 O_a        0.0008031711           -0.0104581886           -0.0089421944
 O_b       -0.0006804131            0.0095104034           -0.0053298692





                                  Dipole moment
                                  -------------

                 au               Debye          C m (/(10**-30)
              1.855644           4.716577          15.732807


                             Dipole moment components
                             ------------------------

                 au               Debye          C m (/(10**-30)

      x     -0.00765320        -0.01945249        -0.06488651
      y     -0.03541040        -0.09000425        -0.30022186
      z      1.85529056         4.71567792        15.72980839


   Units:   1 a.u. =   2.54175 Debye 
            1 a.u. =   8.47835 (10**-30) C m (SI)




   Interatomic separations (in Angstrom):
   --------------------------------------

            C_1         C_2         C_3         C_4         C_5         C_6   
            ------      ------      ------      ------      ------      ------
 C_1   :    0.000000
 C_2   :    1.461199    0.000000
 C_3   :    2.536877    1.452001    0.000000
 C_4   :    2.903687    2.495714    1.448199    0.000000
 C_5   :    2.453221    2.839313    2.493304    1.453655    0.000000
 C_6   :    1.353049    2.437467    2.888240    2.533507    1.463238    0.000000
 H_1   :    2.206240    1.084529    2.198685    3.477851    3.923741    3.407087
 H_2   :    3.517420    2.209456    1.083124    2.206731    3.483434    3.970522
 H_3   :    3.986107    3.485762    2.208342    1.082856    2.212191    3.516769
 H_4   :    3.425405    3.923643    3.473214    2.195260    1.084432    2.218596
 H_5   :    1.086234    2.179044    3.492028    3.988067    3.461788    2.149339
 N     :    2.418121    3.773299    4.353485    3.875338    2.545755    1.465318
 O_a   :    2.698073    4.158994    5.059464    4.860298    3.656695    2.327733
 O_b   :    3.520178    4.747430    5.046089    4.236252    2.784994    2.311551

            H_1         H_2         H_3         H_4         H_5         N     
            ------      ------      ------      ------      ------      ------
 H_1   :    0.000000
 H_2   :    2.536800    0.000000
 H_3   :    4.387033    2.555191    0.000000
 H_4   :    5.008049    4.381721    2.533260    0.000000
 H_5   :    2.484255    4.378665    5.070752    4.354681    0.000000
 N     :    4.623346    5.435511    4.753466    2.779969    2.666135    0.000000
 O_a   :    4.789576    6.113825    5.820698    4.007644    2.419111    1.239790
 O_b   :    5.688434    6.113206    4.909543    2.514676    3.893520    1.239773

            O_a         O_b   
            ------      ------
 O_a   :    0.000000
 O_b   :    2.192597    0.000000


  Max    interatomic separation is    6.1138 Angstrom (   11.5535 Bohr)
  between atoms   13 and    8, "O_a   " and "H_2   ".

  Min HX interatomic separation is    1.0829 Angstrom (    2.0463 Bohr)

  Min YX interatomic separation is    1.2398 Angstrom (    2.3428 Bohr)


  Bond distances (Angstrom):
  --------------------------

                  atom 1     atom 2       distance
                  ------     ------       --------
  bond distance:  C_2        C_1          1.461199
  bond distance:  C_3        C_2          1.452001
  bond distance:  C_4        C_3          1.448199
  bond distance:  C_5        C_4          1.453655
  bond distance:  C_6        C_1          1.353049
  bond distance:  C_6        C_5          1.463238
  bond distance:  H_1        C_2          1.084529
  bond distance:  H_2        C_3          1.083124
  bond distance:  H_3        C_4          1.082856
  bond distance:  H_4        C_5          1.084432
  bond distance:  H_5        C_1          1.086234
  bond distance:  N          C_6          1.465318
  bond distance:  O_a        N            1.239790
  bond distance:  O_b        N            1.239773


  Bond angles (degrees):
  ----------------------

                  atom 1     atom 2     atom 3         angle
                  ------     ------     ------         -----
  bond angle:     C_2        C_1        C_6          119.972
  bond angle:     C_2        C_1        H_5          116.840
  bond angle:     C_6        C_1        H_5          123.188
  bond angle:     C_1        C_2        C_3          121.108
  bond angle:     C_1        C_2        H_1          119.406
  bond angle:     C_3        C_2        H_1          119.476
  bond angle:     C_2        C_3        C_4          118.753
  bond angle:     C_2        C_3        H_2          120.581
  bond angle:     C_4        C_3        H_2          120.648
  bond angle:     C_3        C_4        C_5          118.456
  bond angle:     C_3        C_4        H_3          120.820
  bond angle:     C_5        C_4        H_3          120.717
  bond angle:     C_4        C_5        C_6          120.584
  bond angle:     C_4        C_5        H_4          119.032
  bond angle:     C_6        C_5        H_4          120.383
  bond angle:     C_1        C_6        C_5          121.120
  bond angle:     C_1        C_6        N            118.128
  bond angle:     C_5        C_6        N            120.752
  bond angle:     C_6        N          O_a          118.507
  bond angle:     C_6        N          O_b          117.170
  bond angle:     O_a        N          O_b          124.323




 CPU time statistics for ABACUS
 ------------------------------

 ONEINT     00:01:54      78 %
 TWOTEX     00:00:32      22 %

 TOTAL      00:02:26     100 %


  Total CPU  time used in ABACUS:  2 minutes 26 seconds
  Total wall time used in ABACUS:  2 minutes 27 seconds


                   .-------------------------------------------.
                   | End of Static Property Section (ABACUS) - |
                   `-------------------------------------------'


Building simple model Hessian by Roland Lindh ...


           :::::::::::::::::::::::::::::::::::::::::::::::::::::::::::
           ::::::::::::::: Optimization Control Center :::::::::::::::
           :::::::::::::::::::::::::::::::::::::::::::::::::::::::::::



                                Next geometry (au)
                                ------------------

 C_1       -0.0434292464           -2.2959437653            0.8461563100
 C_2       -0.0706521907           -2.3878668551            3.5304959497
 C_3       -0.0320075697           -0.1306128559            4.9480798399
 C_4        0.0266315132            2.2355981445            3.6860501708
 C_5        0.0379039038            2.3258571675            1.0269638676
 C_6        0.0064625718            0.0124604190           -0.3489588482
 H_1       -0.1029078450           -4.2066006378            4.4810408437
 H_2       -0.0302666725           -0.2099021363            7.0006135101
 H_3        0.0722050975            3.9857479398            4.7557773969
 H_4        0.0830712998            4.1227091118            0.0425252295
 H_5       -0.0655656563           -4.0570337187           -0.2006889513
 N          0.0184558022            0.0770535101           -3.1220498475
 O_a        0.0966084354           -1.9565941292           -4.2589574918
 O_b       -0.0709840287            2.1650850848           -4.1571075887





                             Optimization information
                             ------------------------

 Iteration number               :       0
[...]
  Total wall time used in ABACUS:  2 minutes 30 seconds


                   .-------------------------------------------.
                   | End of Static Property Section (ABACUS) - |
                   `-------------------------------------------'



            *********************************************************
            *** Output from geometry convergence control (MINEND) ***
            *********************************************************


 Energy converged       yes 
 Gradient converged     yes 
 Step converged         no  
 Conditions fullfilled   2
 Required conditions     2
 Totally sym. index      0
 Hessian index           0
 End of optimization    yes 


           :::::::::::::::::::::::::::::::::::::::::::::::::::::::::::
           ::::::::::::::: Optimization Control Center :::::::::::::::
           :::::::::::::::::::::::::::::::::::::::::::::::::::::::::::



                               Final geometry (au)
                               -------------------

 C_1       -0.0367404023           -2.3200116971            0.8939746963
 C_2       -0.0486943028           -2.3790179673            3.5274826051
 C_3       -0.0217499723           -0.1254512670            4.9070583212
 C_4        0.0170947267            2.2029202719            3.6582566258
 C_5        0.0292744657            2.2937319182            1.0256205956
 C_6        0.0020369041            0.0230326921           -0.3107488473
 H_1       -0.0787324657           -4.1854662343            4.5016301027
 H_2       -0.0314050848           -0.1839697998            6.9597168286
 H_3        0.0379019643            3.9511051956            4.7336994595
 H_4        0.0592891311            4.0661122608            0.0019521033
 H_5       -0.0568781196           -4.0312365243           -0.2291711984
 N          0.0147531704            0.1022647032           -3.0940716272
 O_a       -0.0089679116           -1.9261823385           -4.2314701991
 O_b        0.0483433116            2.1921260660           -4.1139890751





                             Optimization information
                             ------------------------

 Iteration number               :      13
 End of optimization            :       T 
 Energy at this geometry is     :    -436.504384
 Energy change from last geom.  :      -0.000000
 Predicted change               :      -0.000000
 Ratio, actual/predicted change :       1.222286
 Norm of gradient               :       0.000057
 Norm of step                   :       0.001140
 Updated trust radius           :       0.011767
 Total Hessian index            :       0



 Center of mass dipole origin  :    0.000493    0.013344    0.030082

 Center of mass gauge origin   :    0.000493    0.013344    0.030082


                 .------------------------------------------------.
                 | Starting in Static Property Section (ABACUS) - |
                 `------------------------------------------------'


 
     Date and time (Linux)  : Sat Nov 10 12:09:12 2018
     Host name              : Mechanist                               


   ***************************************************************************
   ************************ FINAL RESULTS from ABACUS ************************
   ***************************************************************************


 
     Date and time (Linux)  : Sat Nov 10 12:09:12 2018
     Host name              : Mechanist                               


                             Molecular geometry (au)
                             -----------------------

 C_1       -0.0367404023           -2.3200116971            0.8939746963
 C_2       -0.0486943028           -2.3790179673            3.5274826051
 C_3       -0.0217499723           -0.1254512670            4.9070583212
 C_4        0.0170947267            2.2029202719            3.6582566258
 C_5        0.0292744657            2.2937319182            1.0256205956
 C_6        0.0020369041            0.0230326921           -0.3107488473
 H_1       -0.0787324657           -4.1854662343            4.5016301027
 H_2       -0.0314050848           -0.1839697998            6.9597168286
 H_3        0.0379019643            3.9511051956            4.7336994595
 H_4        0.0592891311            4.0661122608            0.0019521033
 H_5       -0.0568781196           -4.0312365243           -0.2291711984
 N          0.0147531704            0.1022647032           -3.0940716272
 O_a       -0.0089679116           -1.9261823385           -4.2314701991
 O_b        0.0483433116            2.1921260660           -4.1139890751





                        Molecular wave function and energy
                        ----------------------------------

     Spatial symmetry   1 ( A   )
     Spin multiplicity  1
     2 * M_S            0
     State number       1
     Total charge       0

     Total energy       -436.5043835108 au (Hartrees)
                        -11877.88848905 eV
                          -1146042.0822 kJ/mol
                           -273910.6315 kcal/mol


                   Scalar Breit-Pauli relativistic corrections
                   -------------------------------------------

     Darwin correction:                          0.8577472667 au
     Mass-velocity correction:                  -1.0766578695 au

     Total relativistic correction:             -0.2189106029 au ( 0.0502%)
     Non-relativistic + relativistic energy:  -436.7232941137 au



      (Note that these corrections are NOT included in the results below.)


                                  Dipole moment
                                  -------------

                 au               Debye          C m (/(10**-30)
              1.792567           4.556251          15.198016


                             Dipole moment components
                             ------------------------

                 au               Debye          C m (/(10**-30)

      x     -0.00819097        -0.02081938        -0.06944598
      y     -0.05099210        -0.12960899        -0.43232905
      z      1.79182287         4.55435917        15.19170696


   Units:   1 a.u. =   2.54175 Debye 
            1 a.u. =   8.47835 (10**-30) C m (SI)




   Interatomic separations (in Angstrom):
   --------------------------------------

            C_1         C_2         C_3         C_4         C_5         C_6   
            ------      ------      ------      ------      ------      ------
 C_1   :    0.000000
 C_2   :    1.393956    0.000000
 C_3   :    2.420438    1.398322    0.000000
 C_4   :    2.805192    2.425894    1.398303    0.000000
 C_5   :    2.442731    2.805138    2.420406    1.393974    0.000000
 C_6   :    1.394331    2.396211    2.762291    2.396252    1.394329    0.000000
 H_1   :    2.149324    1.086183    2.159363    3.410297    3.891317    3.383300
 H_2   :    3.403063    2.155952    1.086673    2.155982    3.403074    3.848965
 H_3   :    3.891377    3.410337    2.159401    1.086188    2.149320    3.383322
 H_4   :    3.412578    3.887949    3.414560    2.171680    1.083216    2.146109
 H_5   :    1.083218    2.171713    3.414618    3.888004    3.412563    2.146088
 N     :    2.469313    3.742064    4.235774    3.742098    2.469314    1.473483
 O_a   :    2.720303    4.112902    4.928896    4.712291    3.567382    2.317024
 O_b   :    3.567390    4.712259    4.928892    4.112933    2.720314    2.317032

            H_1         H_2         H_3         H_4         H_5         N     
            ------      ------      ------      ------      ------      ------
 H_1   :    0.000000
 H_2   :    2.485241    0.000000
 H_3   :    4.307881    2.485376    0.000000
 H_4   :    4.974117    4.314723    2.504698    0.000000
 H_5   :    2.504789    4.314733    4.974177    4.287118    0.000000
 N     :    4.615932    5.322448    4.615933    2.661684    2.661641    0.000000
 O_a   :    4.773644    5.993466    5.672794    3.882665    2.393142    1.230702
 O_b   :    5.672788    5.993482    4.773627    2.393199    3.882629    1.230707

            O_a         O_b   
            ------      ------
 O_a   :    0.000000
 O_b   :    2.180412    0.000000


  Max    interatomic separation is    5.9935 Angstrom (   11.3260 Bohr)
  between atoms   14 and    8, "O_b   " and "H_2   ".

  Min HX interatomic separation is    1.0832 Angstrom (    2.0470 Bohr)

  Min YX interatomic separation is    1.2307 Angstrom (    2.3257 Bohr)


  Bond distances (Angstrom):
  --------------------------

                  atom 1     atom 2       distance
                  ------     ------       --------
  bond distance:  C_2        C_1          1.393956
  bond distance:  C_3        C_2          1.398322
  bond distance:  C_4        C_3          1.398303
  bond distance:  C_5        C_4          1.393974
  bond distance:  C_6        C_1          1.394331
  bond distance:  C_6        C_5          1.394329
  bond distance:  H_1        C_2          1.086183
  bond distance:  H_2        C_3          1.086673
  bond distance:  H_3        C_4          1.086188
  bond distance:  H_4        C_5          1.083216
  bond distance:  H_5        C_1          1.083218
  bond distance:  N          C_6          1.473483
  bond distance:  O_a        N            1.230702
  bond distance:  O_b        N            1.230707


  Bond angles (degrees):
  ----------------------

                  atom 1     atom 2     atom 3         angle
                  ------     ------     ------         -----
  bond angle:     C_2        C_1        C_6          118.495
  bond angle:     C_2        C_1        H_5          121.990
  bond angle:     C_6        C_1        H_5          119.515
  bond angle:     C_1        C_2        C_3          120.185
  bond angle:     C_1        C_2        H_1          119.620
  bond angle:     C_3        C_2        H_1          120.194
  bond angle:     C_2        C_3        C_4          120.324
  bond angle:     C_2        C_3        H_2          119.836
  bond angle:     C_4        C_3        H_2          119.840
  bond angle:     C_3        C_4        C_5          120.183
  bond angle:     C_3        C_4        H_3          120.199
  bond angle:     C_5        C_4        H_3          119.618
  bond angle:     C_4        C_5        C_6          118.497
  bond angle:     C_4        C_5        H_4          121.985
  bond angle:     C_6        C_5        H_4          119.517
  bond angle:     C_1        C_6        C_5          122.316
  bond angle:     C_1        C_6        N            118.842
  bond angle:     C_5        C_6        N            118.842
  bond angle:     C_6        N          O_a          117.645
  bond angle:     C_6        N          O_b          117.645
  bond angle:     O_a        N          O_b          124.710




 CPU time statistics for ABACUS
 ------------------------------




  Total CPU  time used in ABACUS:   0.28 seconds
  Total wall time used in ABACUS:   0.27 seconds


                   .-------------------------------------------.
                   | End of Static Property Section (ABACUS) - |
                   `-------------------------------------------'



          <<<<<<<<<<<<<<<<<<<<<<<<<<<<<<<<<<<<<<<<<<<<<<<<<<<<<<<<<<<<<<
          <<<<<<<<<<<<<<<<<<<<  End of Optimization <<<<<<<<<<<<<<<<<<<<
          <<<<<<<<<<<<<<<<<<<<<<<<<<<<<<<<<<<<<<<<<<<<<<<<<<<<<<<<<<<<<<



                              Final geometry (bohr)
                              ---------------------

 C_1       -0.0367404023           -2.3200116971            0.8939746963
 C_2       -0.0486943028           -2.3790179673            3.5274826051
 C_3       -0.0217499723           -0.1254512670            4.9070583212
 C_4        0.0170947267            2.2029202719            3.6582566258
 C_5        0.0292744657            2.2937319182            1.0256205956
 C_6        0.0020369041            0.0230326921           -0.3107488473
 H_1       -0.0787324657           -4.1854662343            4.5016301027
 H_2       -0.0314050848           -0.1839697998            6.9597168286
 H_3        0.0379019643            3.9511051956            4.7336994595
 H_4        0.0592891311            4.0661122608            0.0019521033
 H_5       -0.0568781196           -4.0312365243           -0.2291711984
 N          0.0147531704            0.1022647032           -3.0940716272
 O_a       -0.0089679116           -1.9261823385           -4.2314701991
 O_b        0.0483433116            2.1921260660           -4.1139890751





                      Final geometry (xyz format; angstrom)
                      -------------------------------------

14

C_1     -0.0194421836           -1.2276973189            0.4730710363
C_2     -0.0257679154           -1.2589220924            1.8666634061
C_3     -0.0115095897           -0.0663859515            2.5967034356
C_4      0.0090461398            1.1657352051            1.9358660376
C_5      0.0154913801            1.2137906588            0.5427350461
C_6      0.0010778832            0.0121883757           -0.1644412083
H_1     -0.0416634266           -2.2148533478            2.3821600618
H_2     -0.0166188552           -0.0973526255            3.6829235393
H_3      0.0200568558            2.0908348270            2.5049658768
H_4      0.0313744570            2.1516939450            0.0010330086
H_5     -0.0300986047           -2.1332385000           -0.1212721756
N        0.0078070416            0.0541161504           -1.6373121937
O_a     -0.0047456145           -1.0192917974           -2.2391975976
O_b      0.0255821788            1.1600231573           -2.1770292640



@ Iter     Energy        Change       GradNorm  Index   StepLen    TrustRad #Rej
@ ------------------------------------------------------------------------------
@   0     -436.487100     0.000000     0.135770    0    0.500000    0.500000   0 
@   1     -436.501889    -0.014790     0.054749    0    0.396111*   0.600000   0 
@   2     -436.503306    -0.001417     0.024236    0    0.159711*   0.396111   1 
@   3     -436.503887    -0.000581     0.022958    0    0.159711    0.159711   0 
@   4     -436.504297    -0.000409     0.008302    0    0.104656*   0.159711   0 
@   5     -436.504319    -0.000022     0.006509    0    0.055672*   0.073259   0 
@   6     -436.504376    -0.000057     0.001912    0    0.030745*   0.080168   0 
@   7     -436.504377    -0.000002     0.001476    0    0.018776*   0.021521   0 
@   8     -436.504382    -0.000005     0.000530    0    0.011767*   0.027037   0 
@   9     -436.504383    -0.000001     0.000339    0    0.009326*   0.011767   0 
@  10     -436.504383    -0.000001     0.000381    0    0.006442*   0.011767   0 
@  11     -436.504383    -0.000000     0.000206    0    0.004061*   0.011767   0 
@  12     -436.504383    -0.000000     0.000125    0    0.001607*   0.011767   0 
@  13     -436.504384    -0.000000     0.000057    0    0.001140*   0.011767   0 

@  *) Newton step taken.


   Interatomic separations (in Angstrom):
   --------------------------------------

            C_1         C_2         C_3         C_4         C_5         C_6   
            ------      ------      ------      ------      ------      ------
 C_1   :    0.000000
 C_2   :    1.393956    0.000000
 C_3   :    2.420438    1.398322    0.000000
 C_4   :    2.805192    2.425894    1.398303    0.000000
 C_5   :    2.442731    2.805138    2.420406    1.393974    0.000000
 C_6   :    1.394331    2.396211    2.762291    2.396252    1.394329    0.000000
 H_1   :    2.149324    1.086183    2.159363    3.410297    3.891317    3.383300
 H_2   :    3.403063    2.155952    1.086673    2.155982    3.403074    3.848965
 H_3   :    3.891377    3.410337    2.159401    1.086188    2.149320    3.383322
 H_4   :    3.412578    3.887949    3.414560    2.171680    1.083216    2.146109
 H_5   :    1.083218    2.171713    3.414618    3.888004    3.412563    2.146088
 N     :    2.469313    3.742064    4.235774    3.742098    2.469314    1.473483
 O_a   :    2.720303    4.112902    4.928896    4.712291    3.567382    2.317024
 O_b   :    3.567390    4.712259    4.928892    4.112933    2.720314    2.317032

            H_1         H_2         H_3         H_4         H_5         N     
            ------      ------      ------      ------      ------      ------
 H_1   :    0.000000
 H_2   :    2.485241    0.000000
 H_3   :    4.307881    2.485376    0.000000
 H_4   :    4.974117    4.314723    2.504698    0.000000
 H_5   :    2.504789    4.314733    4.974177    4.287118    0.000000
 N     :    4.615932    5.322448    4.615933    2.661684    2.661641    0.000000
 O_a   :    4.773644    5.993466    5.672794    3.882665    2.393142    1.230702
 O_b   :    5.672788    5.993482    4.773627    2.393199    3.882629    1.230707

            O_a         O_b   
            ------      ------
 O_a   :    0.000000
 O_b   :    2.180412    0.000000


  Max    interatomic separation is    5.9935 Angstrom (   11.3260 Bohr)
  between atoms   14 and    8, "O_b   " and "H_2   ".

  Min HX interatomic separation is    1.0832 Angstrom (    2.0470 Bohr)

  Min YX interatomic separation is    1.2307 Angstrom (    2.3257 Bohr)


  Bond distances (Angstrom):
  --------------------------

                  atom 1     atom 2       distance
                  ------     ------       --------
  bond distance:  C_2        C_1          1.393956
  bond distance:  C_3        C_2          1.398322
  bond distance:  C_4        C_3          1.398303
  bond distance:  C_5        C_4          1.393974
  bond distance:  C_6        C_1          1.394331
  bond distance:  C_6        C_5          1.394329
  bond distance:  H_1        C_2          1.086183
  bond distance:  H_2        C_3          1.086673
  bond distance:  H_3        C_4          1.086188
  bond distance:  H_4        C_5          1.083216
  bond distance:  H_5        C_1          1.083218
  bond distance:  N          C_6          1.473483
  bond distance:  O_a        N            1.230702
  bond distance:  O_b        N            1.230707


  Bond angles (degrees):
  ----------------------

                  atom 1     atom 2     atom 3         angle
                  ------     ------     ------         -----
  bond angle:     C_2        C_1        C_6          118.495
  bond angle:     C_2        C_1        H_5          121.990
  bond angle:     C_6        C_1        H_5          119.515
  bond angle:     C_1        C_2        C_3          120.185
  bond angle:     C_1        C_2        H_1          119.620
  bond angle:     C_3        C_2        H_1          120.194
  bond angle:     C_2        C_3        C_4          120.324
  bond angle:     C_2        C_3        H_2          119.836
  bond angle:     C_4        C_3        H_2          119.840
  bond angle:     C_3        C_4        C_5          120.183
  bond angle:     C_3        C_4        H_3          120.199
  bond angle:     C_5        C_4        H_3          119.618
  bond angle:     C_4        C_5        C_6          118.497
  bond angle:     C_4        C_5        H_4          121.985
  bond angle:     C_6        C_5        H_4          119.517
  bond angle:     C_1        C_6        C_5          122.316
  bond angle:     C_1        C_6        N            118.842
  bond angle:     C_5        C_6        N            118.842
  bond angle:     C_6        N          O_a          117.645
  bond angle:     C_6        N          O_b          117.645
  bond angle:     O_a        N          O_b          124.710



@ Geometry converged in 14 iterations!

@ Energy at final geometry is       :    -436.504384 a.u.
@ Energy change during optimization :      -0.017284 a.u.
@                                            -45.378 kJ/mol

  Total CPU  time used in DALTON:   1 hour  13 minutes 47 seconds
  Total wall time used in DALTON:   1 hour  13 minutes 57 seconds

 
     Date and time (Linux)  : Sat Nov 10 12:09:12 2018
     Host name              : Mechanist                               
