

     ************************************************************************
     *************** Dalton - An Electronic Structure Program ***************
     ************************************************************************

    This is output from DALTON release Dalton2018.1 (2019)
         ( Web site: http://daltonprogram.org )

   ----------------------------------------------------------------------------

    NOTE:
     
    Dalton is an experimental code for the evaluation of molecular
    properties using (MC)SCF, DFT, CI, and CC wave functions.
    The authors accept no responsibility for the performance of
    the code or for the correctness of the results.
     
    The code (in whole or part) is provided under a licence and
    is not to be reproduced for further distribution without
    the written permission of the authors or their representatives.
     
    See the home page "http://daltonprogram.org" for further information.
     
    If results obtained with this code are published,
    the appropriate citations would be both of:
     
       K. Aidas, C. Angeli, K. L. Bak, V. Bakken, R. Bast,
       L. Boman, O. Christiansen, R. Cimiraglia, S. Coriani,
       P. Dahle, E. K. Dalskov, U. Ekstroem,
       T. Enevoldsen, J. J. Eriksen, P. Ettenhuber, B. Fernandez,
       L. Ferrighi, H. Fliegl, L. Frediani, K. Hald, A. Halkier,
       C. Haettig, H. Heiberg, T. Helgaker, A. C. Hennum,
       H. Hettema, E. Hjertenaes, S. Hoest, I.-M. Hoeyvik,
       M. F. Iozzi, B. Jansik, H. J. Aa. Jensen, D. Jonsson,
       P. Joergensen, J. Kauczor, S. Kirpekar,
       T. Kjaergaard, W. Klopper, S. Knecht, R. Kobayashi, H. Koch,
       J. Kongsted, A. Krapp, K. Kristensen, A. Ligabue,
       O. B. Lutnaes, J. I. Melo, K. V. Mikkelsen, R. H. Myhre,
       C. Neiss, C. B. Nielsen, P. Norman, J. Olsen,
       J. M. H. Olsen, A. Osted, M. J. Packer, F. Pawlowski,
       T. B. Pedersen, P. F. Provasi, S. Reine, Z. Rinkevicius,
       T. A. Ruden, K. Ruud, V. Rybkin, P. Salek, C. C. M. Samson,
       A. Sanchez de Meras, T. Saue, S. P. A. Sauer,
       B. Schimmelpfennig, K. Sneskov, A. H. Steindal,
       K. O. Sylvester-Hvid, P. R. Taylor, A. M. Teale,
       E. I. Tellgren, D. P. Tew, A. J. Thorvaldsen, L. Thoegersen,
       O. Vahtras, M. A. Watson, D. J. D. Wilson, M. Ziolkowski
       and H. Agren,
       "The Dalton quantum chemistry program system",
       WIREs Comput. Mol. Sci. 2014, 4:269–284 (doi: 10.1002/wcms.1172)
     
    and
     
       Dalton, a molecular electronic structure program,
       Release Dalton2018.1 (2019), see http://daltonprogram.org
   ----------------------------------------------------------------------------

    Authors in alphabetical order (major contribution(s) in parenthesis):

  Kestutis Aidas,           Vilnius University,           Lithuania   (QM/MM)
  Celestino Angeli,         University of Ferrara,        Italy       (NEVPT2)
  Keld L. Bak,              UNI-C,                        Denmark     (AOSOPPA, non-adiabatic coupling, magnetic properties)
  Vebjoern Bakken,          University of Oslo,           Norway      (DALTON; geometry optimizer, symmetry detection)
  Radovan Bast,             UiT The Arctic U. of Norway,  Norway      (DALTON installation and execution frameworks)
  Pablo Baudin,             University of Valencia,       Spain       (Cholesky excitation energies)
  Linus Boman,              NTNU,                         Norway      (Cholesky decomposition and subsystems)
  Ove Christiansen,         Aarhus University,            Denmark     (CC module)
  Renzo Cimiraglia,         University of Ferrara,        Italy       (NEVPT2)
  Sonia Coriani,            Technical Univ. of Denmark,   Denmark     (CC module, MCD in RESPONS)
  Janusz Cukras,            University of Trieste,        Italy       (MChD in RESPONS)
  Paal Dahle,               University of Oslo,           Norway      (Parallelization)
  Erik K. Dalskov,          UNI-C,                        Denmark     (SOPPA)
  Thomas Enevoldsen,        Univ. of Southern Denmark,    Denmark     (SOPPA)
  Janus J. Eriksen,         Aarhus University,            Denmark     (Polarizable embedding model, TDA)
  Rasmus Faber,             University of Copenhagen,     Denmark     (Vib.avg. NMR with SOPPA, parallel AO-SOPPA)
  Tobias Fahleson,          KTH Stockholm,                Sweden      (Damped cubic response)
  Berta Fernandez,          U. of Santiago de Compostela, Spain       (doublet spin, ESR in RESPONS)
  Lara Ferrighi,            Aarhus University,            Denmark     (PCM Cubic response)
  Heike Fliegl,             University of Oslo,           Norway      (CCSD(R12))
  Luca Frediani,            UiT The Arctic U. of Norway,  Norway      (PCM)
  Bin Gao,                  UiT The Arctic U. of Norway,  Norway      (Gen1Int library)
  Christof Haettig,         Ruhr-University Bochum,       Germany     (CC module)
  Kasper Hald,              Aarhus University,            Denmark     (CC module)
  Asger Halkier,            Aarhus University,            Denmark     (CC module)
  Frederik Beyer Hansen,    University of Copenhagen,     Denmark     (Parallel AO-SOPPA)
  Erik D. Hedegaard,        Univ. of Southern Denmark,    Denmark     (Polarizable embedding model, QM/MM)
  Hanne Heiberg,            University of Oslo,           Norway      (geometry analysis, selected one-electron integrals)
  Trygve Helgaker,          University of Oslo,           Norway      (DALTON; ABACUS, ERI, DFT modules, London, and much more)
  Alf Christian Hennum,     University of Oslo,           Norway      (Parity violation)
  Hinne Hettema,            University of Auckland,       New Zealand (quadratic response in RESPONS; SIRIUS supersymmetry)
  Eirik Hjertenaes,         NTNU,                         Norway      (Cholesky decomposition)
  Pi A. B. Haase,           University of Copenhagen,     Denmark     (Triplet AO-SOPPA)
  Maria Francesca Iozzi,    University of Oslo,           Norway      (RPA)
  Christoph Jacob           TU Braunschweig               Germany     (Frozen density embedding model)
  Brano Jansik              Technical Univ. of Ostrava    Czech Rep.  (DFT cubic response)
  Hans Joergen Aa. Jensen,  Univ. of Southern Denmark,    Denmark     (DALTON; SIRIUS, RESPONS, ABACUS modules, London, and much more)
  Dan Jonsson,              UiT The Arctic U. of Norway,  Norway      (cubic response in RESPONS module)
  Poul Joergensen,          Aarhus University,            Denmark     (RESPONS, ABACUS, and CC modules)
  Maciej Kaminski,          University of Warsaw,         Poland      (CPPh in RESPONS)
  Joanna Kauczor,           Linkoeping University,        Sweden      (Complex polarization propagator (CPP) module)
  Sheela Kirpekar,          Univ. of Southern Denmark,    Denmark     (Mass-velocity & Darwin integrals)
  Wim Klopper,              KIT Karlsruhe,                Germany     (R12 code in CC, SIRIUS, and ABACUS modules)
  Stefan Knecht,            ETH Zurich,                   Switzerland (Parallel CI and MCSCF)
  Rika Kobayashi,           Australian National Univ.,    Australia   (DIIS in CC, London in MCSCF)
  Henrik Koch,              NTNU,                         Norway      (CC module, Cholesky decomposition)
  Jacob Kongsted,           Univ. of Southern Denmark,    Denmark     (Polarizable embedding model, QM/MM)
  Andrea Ligabue,           University of Modena,         Italy       (CTOCD, AOSOPPA)
  Nanna H. List             Univ. of Southern Denmark,    Denmark     (Polarizable embedding model)
  Ola B. Lutnaes,           University of Oslo,           Norway      (DFT Hessian)
  Juan I. Melo,             University of Buenos Aires,   Argentina   (LRESC, Relativistic Effects on NMR Shieldings)
  Kurt V. Mikkelsen,        University of Copenhagen,     Denmark     (MC-SCRF and QM/MM)
  Rolf H. Myhre,            NTNU,                         Norway      (Subsystems and CC3)
  Christian Neiss,          Univ. Erlangen-Nuernberg,     Germany     (CCSD(R12))
  Christian B. Nielsen,     University of Copenhagen,     Denmark     (QM/MM)
  Patrick Norman,           KTH Stockholm,                Sweden      (Cubic response and complex frequency response in RESPONS)
  Jeppe Olsen,              Aarhus University,            Denmark     (SIRIUS CI/density modules)
  Jogvan Magnus H. Olsen,   Univ. of Southern Denmark,    Denmark     (Polarizable embedding model, QM/MM)
  Anders Osted,             Copenhagen University,        Denmark     (QM/MM)
  Martin J. Packer,         University of Sheffield,      UK          (SOPPA)
  Filip Pawlowski,          Kazimierz Wielki University,  Poland      (CC3)
  Morten N. Pedersen,       Univ. of Southern Denmark,    Denmark     (Polarizable embedding model)
  Thomas B. Pedersen,       University of Oslo,           Norway      (Cholesky decomposition)
  Patricio F. Provasi,      University of Northeastern,   Argentina   (Analysis of coupling constants in localized orbitals)
  Zilvinas Rinkevicius,     KTH Stockholm,                Sweden      (open-shell DFT, ESR)
  Elias Rudberg,            KTH Stockholm,                Sweden      (DFT grid and basis info)
  Torgeir A. Ruden,         University of Oslo,           Norway      (Numerical derivatives in ABACUS)
  Kenneth Ruud,             UiT The Arctic U. of Norway,  Norway      (DALTON; ABACUS magnetic properties and much more)
  Pawel Salek,              KTH Stockholm,                Sweden      (DALTON; DFT code)
  Claire C. M. Samson       University of Karlsruhe       Germany     (Boys localization, r12 integrals in ERI)
  Alfredo Sanchez de Meras, University of Valencia,       Spain       (CC module, Cholesky decomposition)
  Trond Saue,               Paul Sabatier University,     France      (direct Fock matrix construction)
  Stephan P. A. Sauer,      University of Copenhagen,     Denmark     (SOPPA(CCSD), SOPPA prop., AOSOPPA, vibrational g-factors)
  Andre S. P. Gomes,        CNRS/Universite de Lille,     France      (Frozen density embedding model)
  Bernd Schimmelpfennig,    Forschungszentrum Karlsruhe,  Germany     (AMFI module)
  Kristian Sneskov,         Aarhus University,            Denmark     (Polarizable embedding model, QM/MM)
  Arnfinn H. Steindal,      UiT The Arctic U. of Norway,  Norway      (parallel QM/MM, Polarizable embedding model)
  Casper Steinmann,         Univ. of Southern Denmark,    Denmark     (QFIT, Polarizable embedding model)
  K. O. Sylvester-Hvid,     University of Copenhagen,     Denmark     (MC-SCRF)
  Peter R. Taylor,          VLSCI/Univ. of Melbourne,     Australia   (Symmetry handling ABACUS, integral transformation)
  Andrew M. Teale,          University of Nottingham,     England     (DFT-AC, DFT-D)
  David P. Tew,             University of Bristol,        England     (CCSD(R12))
  Olav Vahtras,             KTH Stockholm,                Sweden      (triplet response, spin-orbit, ESR, TDDFT, open-shell DFT)
  Lucas Visscher,           Vrije Universiteit Amsterdam, Netherlands (Frozen density embedding model)
  David J. Wilson,          La Trobe University,          Australia   (DFT Hessian and DFT magnetizabilities)
  Hans Agren,               KTH Stockholm,                Sweden      (SIRIUS module, RESPONS, MC-SCRF solvation model)
 --------------------------------------------------------------------------------

     Date and time (Linux)  : Wed Feb 19 10:48:12 2020
     Host name              : Lab2-333-NPs                            

 * Work memory size             :  1024000000 =  7.629 gigabytes.

 * Directories for basis set searches:
   1) /home/lab333/dalton/build_2018_atlas
   2) /home/lab333/dalton/build_2018_atlas/basis


Compilation information
-----------------------

 Who compiled             | lab333
 Host                     | Lab2-333-NPs
 System                   | Linux-4.4.0-43-Microsoft
 CMake generator          | Unix Makefiles
 Processor                | x86_64
 64-bit integers          | OFF
 MPI                      | OFF
 Fortran compiler         | /usr/bin/gfortran
 Fortran compiler version | GNU Fortran (Ubuntu 7.3.0-27ubuntu1~18.04) 7.3.0
 C compiler               | /usr/bin/gcc
 C compiler version       | gcc (Ubuntu 7.3.0-27ubuntu1~18.04) 7.3.0
 C++ compiler             | /usr/bin/g++
 C++ compiler version     | g++ (Ubuntu 7.3.0-27ubuntu1~18.04) 7.3.0
 BLAS                     | /usr/lib/x86_64-linux-gnu/libf77blas.so;/usr/lib/x
                          | 86_64-linux-gnu/libcblas.so;/usr/lib/x86_64-linux-
                          | gnu/libatlas.so
 LAPACK                   | /usr/lib/x86_64-linux-gnu/libatlas.so;/usr/lib/x86
                          | _64-linux-gnu/atlas/liblapack.so
 Static linking           | OFF
 Last Git revision        | da625bf48c74028e805616daee31bc5d76b3a20d
 Git branch               | (HEAD detached at Dalton2018.1)
 Configuration time       | 2019-01-18 10:20:51.437510


   Content of the .dal input file
 ----------------------------------

**DALTON INPUT
.OPTIMIZE
**WAVE FUNCTIONS
.DFT
B3LYP
**END OF DALTON INPUT


   Content of the .mol file
 ----------------------------

BASIS
6-311+G*
 N2
 Generated by the Dalton Input File Plugin for Avogadro
Atomtypes=1 Angstrom
Charge=7.0 Atoms=2
N          0.00000       -0.03792        0.00000
N          0.00000        1.38208        0.00000


       *******************************************************************
       *********** Output from DALTON general input processing ***********
       *******************************************************************

 --------------------------------------------------------------------------------
   Overall default print level:    0
   Print level for DALTON.STAT:    1

    "Old" integral transformation used (limited to max 255 basis functions)
 --------------------------------------------------------------------------------


 Chosen parameters for *OPTIMI :
 -------------------------------

 Default 1st order method will be used:   BFGS update.
 Optimization will be performed in redundant internal coordinates (by default).
 Model Hessian will be used as initial Hessian.
 The model Hessian parameters of Roland Lindh will be used.


 Trust region method will be used to control step (default).

 Convergence threshold for gradient set to :      1.00D-04
 Convergence threshold for energy set to   :      1.00D-06
 Convergence threshold for step set to     :      1.00D-04
 Number of convergence criteria set to     :   2


              >>>>>>>>>>>>>>>>>>>>>>>>>>>>>>>>>>>>>>>>>>>>>>>>>>>>>
              >>>>>>>>>> 1st Order Geometry Optimization >>>>>>>>>>
              >>>>>>>>>>>>>>>>>>>>>>>>>>>>>>>>>>>>>>>>>>>>>>>>>>>>>


 Reading .mol file to determine number of atoms for parallel runs.


                      SYMADD: Requested addition of symmetry
                      --------------------------------------

 Symmetry test threshold:  5.00E-06

@   The molecule is centered at center of mass and rotated
@   so principal axes of inertia are along coordinate axes.

 Symmetry class found: D(oo,h)        

 The following symmetry elements were found:   X  Y  Z  


   ****************************************************************************
   *************** Output of molecule and basis set information ***************
   ****************************************************************************


    The two title cards from your ".mol" input:
    ------------------------------------------------------------------------
 1:  N2                                                                     
 2:  Generated by the Dalton Input File Plugin for Avogadro                 
    ------------------------------------------------------------------------

  Coordinates are entered in Angstrom and converted to atomic units.
          - Conversion factor : 1 bohr = 0.52917721 A

  Atomic type no.    1
  --------------------
  Nuclear charge:   7.00000
  Number of symmetry independent centers:    2
  Number of basis sets to read;    2
  Basis set file used for this atomic type with Z =   7 :
     "/home/lab333/dalton/build_2018_atlas/basis/6-311+G*"

  Info about the basis set file: your basis has no documentation.
  Basis set: 6-311+G*                                                                        


                      SYMADD: Requested addition of symmetry
                      --------------------------------------

 Symmetry test threshold:  5.00E-06

@   The molecule is centered at center of mass and rotated
@   so principal axes of inertia are along coordinate axes.

 Symmetry class found: D(oo,h)        

 Symmetry Independent Centres             
 ----------------------------
       7 :      0.00000000     0.00000000     1.34170555  Isotope  1

 The following symmetry elements were found:   X  Y  Z  


                         SYMGRP: Point group information
                         -------------------------------

@    Full point group is: D(oo,h)        
@    Represented as:      D2h

@  * The irrep name for each symmetry:    1: Ag     2: B3u    3: B2u    4: B1g    5: B1u    6: B2g    7: B3g    8: Au 


   * The point group was generated by:

      Reflection in the yz-plane
      Reflection in the xz-plane
      Reflection in the xy-plane

   * Group multiplication table

        |  E   C2z  C2y  C2x   i   Oxy  Oxz  Oyz
   -----+----------------------------------------
     E  |  E   C2z  C2y  C2x   i   Oxy  Oxz  Oyz
    C2z | C2z   E   C2x  C2y  Oxy   i   Oyz  Oxz
    C2y | C2y  C2x   E   C2z  Oxz  Oyz   i   Oxy
    C2x | C2x  C2y  C2z   E   Oyz  Oxz  Oxy   i 
     i  |  i   Oxy  Oxz  Oyz   E   C2z  C2y  C2x
    Oxy | Oxy   i   Oyz  Oxz  C2z   E   C2x  C2y
    Oxz | Oxz  Oyz   i   Oxy  C2y  C2x   E   C2z
    Oyz | Oyz  Oxz  Oxy   i   C2x  C2y  C2z   E 

   * Character table

        |  E   C2z  C2y  C2x   i   Oxy  Oxz  Oyz
   -----+----------------------------------------
    Ag  |   1    1    1    1    1    1    1    1
    B3u |   1   -1   -1    1   -1    1    1   -1
    B2u |   1   -1    1   -1   -1    1   -1    1
    B1g |   1    1   -1   -1    1    1   -1   -1
    B1u |   1    1   -1   -1   -1   -1    1    1
    B2g |   1   -1    1   -1    1   -1    1   -1
    B3g |   1   -1   -1    1    1   -1   -1    1
    Au  |   1    1    1    1   -1   -1   -1   -1

   * Direct product table

        | Ag   B3u  B2u  B1g  B1u  B2g  B3g  Au 
   -----+----------------------------------------
    Ag  | Ag   B3u  B2u  B1g  B1u  B2g  B3g  Au 
    B3u | B3u  Ag   B1g  B2u  B2g  B1u  Au   B3g
    B2u | B2u  B1g  Ag   B3u  B3g  Au   B1u  B2g
    B1g | B1g  B2u  B3u  Ag   Au   B3g  B2g  B1u
    B1u | B1u  B2g  B3g  Au   Ag   B3u  B2u  B1g
    B2g | B2g  B1u  Au   B3g  B3u  Ag   B1g  B2u
    B3g | B3g  Au   B1u  B2g  B2u  B1g  Ag   B3u
    Au  | Au   B3g  B2g  B1u  B1g  B2u  B3u  Ag 


                                 Isotopic Masses
                                 ---------------

                           N   _1     14.003074
                           N   _2     14.003074

                       Total mass:    28.006148 amu
                       Natural abundance:  99.261 %

 Center-of-mass coordinates (a.u.):    0.000000    0.000000    0.000000


  Atoms and basis sets
  --------------------

  Number of atom types :    1
  Total number of atoms:    2

  Basis set used is "6-311+G*" from the basis set library.

  label    atoms   charge   prim   cont     basis
  ----------------------------------------------------------------------
  N           2    7.0000    35    22      [12s6p1d|5s4p1d]                                   
  ----------------------------------------------------------------------
  total:      2   14.0000    70    44
  ----------------------------------------------------------------------
  Spherical harmonic basis used.

  Threshold for neglecting AO integrals:  1.00D-12


  Cartesian Coordinates (a.u.)
  ----------------------------

  Total number of coordinates:    6
  N   / 1 :     1  x   0.0000000000    2  y   0.0000000000    3  z   1.3417055487
  N   / 2 :     4  x   0.0000000000    5  y   0.0000000000    6  z  -1.3417055487


  Symmetry Coordinates
  --------------------

  Number of coordinates in each symmetry:     1    1    1    0    1    1    1    0

  Symmetry  Ag  ( 1)

    1   N     z    [  3  -    6 ]/2

  Symmetry  B3u ( 2)

    2   N     x    [  1  +    4 ]/2

  Symmetry  B2u ( 3)

    3   N     y    [  2  +    5 ]/2

  Symmetry  B1u ( 5)

    4   N     z    [  3  +    6 ]/2

  Symmetry  B2g ( 6)

    5   N     x    [  1  -    4 ]/2

  Symmetry  B3g ( 7)

    6   N     y    [  2  -    5 ]/2


   Interatomic separations (in Angstrom):
   --------------------------------------

            N   _1      N   _2
            ------      ------
 N   _1:    0.000000
 N   _2:    1.420000    0.000000


  Max    interatomic separation is    1.4200 Angstrom (    2.6834 Bohr)
  between atoms    2 and    1, "N   _2" and "N   _1".

  Min YX interatomic separation is    1.4200 Angstrom (    2.6834 Bohr)


  Bond distances (Angstrom):
  --------------------------

                  atom 1     atom 2       distance
                  ------     ------       --------
  bond distance:  N   _2     N   _1       1.420000




 Principal moments of inertia (u*A**2) and principal axes
 --------------------------------------------------------

   IA       0.000000          0.000000    0.000000    1.000000
   IB      14.117899          0.000000    1.000000    0.000000
   IC      14.117899          1.000000    0.000000    0.000000


 Rotational constants
 --------------------

@    The molecule is linear.

               B =        35797.04 MHz     (    1.194061 cm-1)


@  Nuclear repulsion energy :   18.260340372676 Hartree


  Symmetry Orbitals
  -----------------

  Number of orbitals in each symmetry:          11    5    5    1   11    5    5    1


  Symmetry  Ag ( 1)

    1     N        1s         1 +    2
    2     N        1s         3 +    4
    3     N        1s         5 +    6
    4     N        1s         7 +    8
    5     N        1s         9 +   10
    6     N        2pz       15 -   16
    7     N        2pz       21 -   22
    8     N        2pz       27 -   28
    9     N        2pz       33 -   34
   10     N        3d0       39 +   40
   11     N        3d2+      43 +   44


  Symmetry  B3u( 2)

   12     N        2px       11 +   12
   13     N        2px       17 +   18
   14     N        2px       23 +   24
   15     N        2px       29 +   30
   16     N        3d1+      41 -   42


  Symmetry  B2u( 3)

   17     N        2py       13 +   14
   18     N        2py       19 +   20
   19     N        2py       25 +   26
   20     N        2py       31 +   32
   21     N        3d1-      37 -   38


  Symmetry  B1g( 4)

   22     N        3d2-      35 +   36


  Symmetry  B1u( 5)

   23     N        1s         1 -    2
   24     N        1s         3 -    4
   25     N        1s         5 -    6
   26     N        1s         7 -    8
   27     N        1s         9 -   10
   28     N        2pz       15 +   16
   29     N        2pz       21 +   22
   30     N        2pz       27 +   28
   31     N        2pz       33 +   34
   32     N        3d0       39 -   40
   33     N        3d2+      43 -   44


  Symmetry  B2g( 6)

   34     N        2px       11 -   12
   35     N        2px       17 -   18
   36     N        2px       23 -   24
   37     N        2px       29 -   30
   38     N        3d1+      41 +   42


  Symmetry  B3g( 7)

   39     N        2py       13 -   14
   40     N        2py       19 -   20
   41     N        2py       25 -   26
   42     N        2py       31 -   32
   43     N        3d1-      37 +   38


  Symmetry  Au ( 8)

   44     N        3d2-      35 -   36

  Symmetries of electric field:  B3u(2)  B2u(3)  B1u(5)

  Symmetries of magnetic field:  B3g(7)  B2g(6)  B1g(4)


                     .---------------------------------------.
                     | Starting in Integral Section (HERMIT) |
                     `---------------------------------------'



 ***************************************************************************************
 ****************** Output from **INTEGRALS input processing (HERMIT) ******************
 ***************************************************************************************


 - Using defaults, no **INTEGRALS input found

 Default print level:        1

 Calculation of one- and two-electron Hamiltonian integrals.

 Center of mass  (bohr):      0.000000000000      0.000000000000      0.000000000000
 Operator center (bohr):      0.000000000000      0.000000000000      0.000000000000
 Gauge origin    (bohr):      0.000000000000      0.000000000000      0.000000000000
 Dipole origin   (bohr):      0.000000000000      0.000000000000      0.000000000000


     ************************************************************************
     ************************** Output from HERINT **************************
     ************************************************************************



                      Nuclear contribution to dipole moments
                      --------------------------------------

                    All dipole components are zero by symmetry



 Threshold for neglecting two-electron integrals:  1.00D-12
 HERMIT - Number of two-electron integrals written:       63489 ( 12.9% )
 HERMIT - Megabytes written:                              0.728

  Total CPU  time used in HERMIT:   0.05 seconds
  Total wall time used in HERMIT:   0.05 seconds


                        .----------------------------------.
                        | End of Integral Section (HERMIT) |
                        `----------------------------------'



                   .--------------------------------------------.
                   | Starting in Wave Function Section (SIRIUS) |
                   `--------------------------------------------'


 *** Output from Huckel module :

     Using EWMO model:          F
     Using EHT  model:          T
     Number of Huckel orbitals each symmetry:    3    1    1    0    3    1    1    0

 Huckel EHT eigenvalues for symmetry :  1
          -15.674295      -1.241315      -0.526244

 Huckel EHT eigenvalues for symmetry :  2
           -0.598186

 Huckel EHT eigenvalues for symmetry :  3
           -0.598186

 Huckel EHT eigenvalues for symmetry :  5
          -15.675417      -0.849739      -0.310591

 Huckel EHT eigenvalues for symmetry :  6
           -0.419214

 Huckel EHT eigenvalues for symmetry :  7
           -0.419214

 **********************************************************************
 *SIRIUS* a direct, restricted step, second order MCSCF program       *
 **********************************************************************

 
     Date and time (Linux)  : Wed Feb 19 10:48:12 2020
     Host name              : Lab2-333-NPs                            

 Title lines from ".mol" input file:
      N2                                                                     
      Generated by the Dalton Input File Plugin for Avogadro                 

 Print level on unit LUPRI =   2 is   0
 Print level on unit LUW4  =   2 is   5

@    Restricted, closed shell Kohn-Sham DFT calculation.

 Initial molecular orbitals are obtained according to
 ".MOSTART EHT   " input option

     Wave function specification
     ============================
@    Wave function type        --- KS-DFT ---
@    Number of closed shell electrons          14
@    Number of electrons in active shells       0
@    Total charge of the molecule               0

@    Spin multiplicity and 2 M_S                1         0
@    Total number of symmetries                 8 (point group: D2h)
@    Reference state symmetry                   1 (irrep name : Ag )
 
     This is a DFT calculation of type: B3LYP
 Weighted mixed functional:
               HF exchange:    0.20000
                       VWN:    0.19000
                       LYP:    0.81000
                     Becke:    0.72000
                    Slater:    0.80000

     Orbital specifications
     ======================
@    Abelian symmetry species          All |    1    2    3    4    5    6    7    8
@                                          |  Ag   B3u  B2u  B1g  B1u  B2g  B3g  Au 
                                       --- |  ---  ---  ---  ---  ---  ---  ---  ---
@    Total number of orbitals           44 |   11    5    5    1   11    5    5    1
@    Number of basis functions          44 |   11    5    5    1   11    5    5    1

      ** Automatic occupation of RKS orbitals **

      -- Initial occupation of symmetries is determined from extended Huckel guess.           
      -- Initial occupation of symmetries is :
@    Occupied SCF orbitals               7 |    3    1    1    0    2    0    0    0

     Maximum number of Fock   iterations      0
     Maximum number of DIIS   iterations     60
     Maximum number of QC-SCF iterations     60
     Threshold for SCF convergence     1.00D-05
 
     This is a DFT calculation of type: B3LYP
 Weighted mixed functional:
               HF exchange:    0.20000
                       VWN:    0.19000
                       LYP:    0.81000
                     Becke:    0.72000
                    Slater:    0.80000


 ***********************************************
 ***** DIIS acceleration of SCF iterations *****
 ***********************************************

 C1-DIIS algorithm; max error vectors =    8

 Automatic occupation of symmetries with  14 electrons.

 Iter     Total energy    Error norm  Delta(E)    SCF occupation
 -----------------------------------------------------------------------------
      K-S energy, electrons, error :    -10.669888893276  14.0000000376    3.76D-08
@  1  -109.194338932       1.95D+00  -1.09D+02     3   1   1   0   2   0   0   0
      Virial theorem: -V/T =      2.019463
@    MULPOP   N   _1  0.00; N   _2  0.00; 
   1  Level shift: doubly occupied orbital energies shifted by -2.00D-01
 -----------------------------------------------------------------------------
      K-S energy, electrons, error :    -10.886739713980  13.9999999967   -3.28D-09
@  2  -109.343290213       6.09D-01  -1.49D-01     3   1   1   0   2   0   0   0
      Virial theorem: -V/T =      2.003133
@    MULPOP   N   _1 -0.00; N   _2 -0.00; 
   2  Level shift: doubly occupied orbital energies shifted by -1.00D-01
 -----------------------------------------------------------------------------
      K-S energy, electrons, error :    -10.787381429907  13.9999999948   -5.23D-09
@  3  -109.359810412       8.49D-02  -1.65D-02     3   1   1   0   2   0   0   0
      Virial theorem: -V/T =      2.011994
@    MULPOP   N   _1 -0.00; N   _2 -0.00; 
   3  Level shift: doubly occupied orbital energies shifted by -2.50D-02
 -----------------------------------------------------------------------------
      K-S energy, electrons, error :    -10.809093042121  13.9999999929   -7.07D-09
@  4  -109.360145335       2.76D-02  -3.35D-04     3   1   1   0   2   0   0   0
      Virial theorem: -V/T =      2.009926
@    MULPOP   N   _1  0.00; N   _2  0.00; 
   4  Level shift: doubly occupied orbital energies shifted by -1.25D-02
 -----------------------------------------------------------------------------
      K-S energy, electrons, error :    -10.802948907198  13.9999999930   -6.97D-09
@  5  -109.360186474       2.10D-03  -4.11D-05     3   1   1   0   2   0   0   0
      Virial theorem: -V/T =      2.010472
@    MULPOP   N   _1 -0.00; N   _2 -0.00; 
 -----------------------------------------------------------------------------
      K-S energy, electrons, error :    -10.803176973241  13.9999999930   -6.99D-09
@  6  -109.360186683       6.76D-05  -2.09D-07     3   1   1   0   2   0   0   0
      Virial theorem: -V/T =      2.010451
@    MULPOP   N   _1 -0.00; N   _2 -0.00; 
 -----------------------------------------------------------------------------
      K-S energy, electrons, error :    -10.803160532843  13.9999999930   -6.99D-09
@  7  -109.360186684       8.01D-06  -3.70D-10     3   1   1   0   2   0   0   0

@ *** DIIS converged in   7 iterations !
@     Converged SCF energy, gradient:   -109.360186683733    8.01D-06
    - total time used in SIRFCK :              0.00 seconds


 *** SCF orbital energy analysis ***

 Only the 20 lowest virtual orbital energies printed in each symmetry.

 Number of electrons :   14
 Orbital occupations :    3    1    1    0    2    0    0    0

 Sym       Kohn-Sham orbital energies

1 Ag    -14.48505761    -0.96902077    -0.42050980     0.05838174     0.14121014
          0.73638768     0.92258450     1.79128230     2.05471956     3.64064573
         35.07537611

2 B3u    -0.39559445     0.09848445     0.72977485     1.58871369     3.60974891


3 B2u    -0.39559445     0.09848445     0.72977485     1.58871369     3.60974891


4 B1g     1.79128228

5 B1u   -14.48482431    -0.63795006     0.06104991     0.18701178     0.25264611
          0.74117453     1.13913106     1.99283951     2.81391076     4.61508374
         35.17684782

6 B2g    -0.14617498     0.15821852     0.78771171     2.45421592     3.78276865


7 B3g    -0.14617498     0.15821852     0.78771171     2.45421592     3.78276865


8 Au      1.99283949

    E(LUMO) :    -0.14617498 au (symmetry 6)
  - E(HOMO) :    -0.39559445 au (symmetry 2)
  ------------------------------------------
    gap     :     0.24941947 au

 --- Writing SIRIFC interface file

 CPU and wall time for SCF :       0.984       0.992


                       .-----------------------------------.
                       | --- Final results from SIRIUS --- |
                       `-----------------------------------'


@    Spin multiplicity:           1
@    Spatial symmetry:            1 ( irrep  Ag  in D2h )
@    Total charge of molecule:    0

@    Final DFT energy:           -109.360186683733                 
@    Nuclear repulsion:            18.260340372676
@    Electronic energy:          -127.620527056409

@    Final gradient norm:           0.000008014629

 
     Date and time (Linux)  : Wed Feb 19 10:48:13 2020
     Host name              : Lab2-333-NPs                            

File label for MO orbitals:  19Feb20   FOCKDIIS

 (Only coefficients > 0.0100 are printed.)

 Molecular orbitals for symmetry species 1  (Ag )
 ------------------------------------------------

    Orbital         1        2        3        4        5        6        7
   1 N   :1s     0.3942  -0.0864  -0.0291  -0.0286   0.0079   0.0153  -0.0848
   2 N   :1s     0.3298  -0.1367  -0.0467  -0.0455   0.0120   0.0239  -0.1730
   3 N   :1s     0.0089   0.3984   0.1341   0.1253  -0.0226  -0.0579   1.3425
   4 N   :1s    -0.0042   0.2420   0.1946   0.6308  -0.3551   0.3436  -1.6924
   5 N   :1s     0.0013  -0.0080   0.0481  -0.9171  -0.0076  -0.2717   0.6209
   6 N   :2pz   -0.0010  -0.0711   0.2122   0.0471   0.0418  -0.1277   0.0228
   7 N   :2pz    0.0002  -0.1133   0.3165   0.0436   0.0401  -0.6052  -0.0833
   8 N   :2pz    0.0001  -0.0354   0.2078   0.1548   0.1493   1.2057   0.1175
   9 N   :2pz   -0.0004   0.0091   0.0068  -0.2473  -1.2898  -0.7921  -0.3112
  10 N   :3d0   -0.0002   0.0183  -0.0215   0.0049  -0.0230   0.0793   0.1067

    Orbital         8        9       10       11
   1 N   :1s     0.0000  -0.0316   0.0061  -1.5168
   2 N   :1s     0.0000  -0.0590   0.0054   1.5965
   3 N   :1s    -0.0000   0.4345   0.0327  -0.2520
   4 N   :1s    -0.0000  -0.2293   0.0703   0.2027
   5 N   :1s    -0.0000   0.0117  -0.0817  -0.0629
   6 N   :2pz   -0.0000  -0.1198   0.9087   0.0060
   7 N   :2pz   -0.0000  -0.2692  -1.0473   0.0044
   8 N   :2pz   -0.0000   0.3750   0.6453  -0.0151
   9 N   :2pz    0.0000  -0.1440  -0.2907   0.0287
  10 N   :3d0   -0.0000  -0.6478  -0.1556   0.0189
  11 N   :3d2+   0.6943  -0.0000   0.0000   0.0000

 Molecular orbitals for symmetry species 2  (B3u)
 ------------------------------------------------

    Orbital         1        2        3        4        5
   1 N   :2px    0.2041  -0.0851   0.1904   0.0692  -0.9085
   2 N   :2px    0.3059  -0.0914   0.6260  -0.0191   1.0907
   3 N   :2px    0.2513  -0.2899  -1.0154   0.1150  -0.5579
   4 N   :2px    0.0226   0.6647   0.4422  -0.0594   0.1758
   5 N   :3d1+  -0.0270   0.0117  -0.0169   0.6457   0.0627

 Molecular orbitals for symmetry species 3  (B2u)
 ------------------------------------------------

    Orbital         1        2        3        4        5
   1 N   :2py    0.2041  -0.0851   0.1904   0.0692  -0.9085
   2 N   :2py    0.3059  -0.0914   0.6260  -0.0191   1.0907
   3 N   :2py    0.2513  -0.2899  -1.0154   0.1150  -0.5579
   4 N   :2py    0.0226   0.6647   0.4422  -0.0594   0.1758
   5 N   :3d1-  -0.0270   0.0117  -0.0169   0.6457   0.0627

 Molecular orbitals for symmetry species 4  (B1g)
 ------------------------------------------------

    Orbital         1
   1 N   :3d2-   0.6943

 Molecular orbitals for symmetry species 5  (B1u)
 ------------------------------------------------

    Orbital         1        2        3        4        5        6        7
   1 N   :1s     0.3942  -0.0923   0.0357   0.0342   0.0232  -0.0118  -0.0835
   2 N   :1s     0.3297  -0.1473   0.0589   0.0561   0.0359  -0.0202  -0.1716
   3 N   :1s     0.0092   0.4423  -0.2032  -0.1710  -0.0651   0.0458   1.5289
   4 N   :1s    -0.0081   0.4268  -0.3611  -0.7980  -0.9566   1.5511  -4.1751
   5 N   :1s     0.0164  -0.0690  -4.1035   0.9571  18.8756   0.2252   9.2900
   6 N   :2pz   -0.0007   0.0620   0.0696   0.2544   0.0015   0.1980  -0.0238
   7 N   :2pz   -0.0002   0.0860   0.1223   0.3544   0.0335   0.5602   0.0565
   8 N   :2pz    0.0021   0.0285   0.0843   1.0288  -0.0885  -2.3574   1.4672
   9 N   :2pz   -0.0053   0.0330   2.1243  -0.8098  -6.5499   0.4586  -3.0659
  10 N   :3d0    0.0003  -0.0090   0.0194   0.0270  -0.0085   0.0276  -0.0034

    Orbital         8        9       10       11
   1 N   :1s    -0.0000  -0.0045   0.0241   1.5169
   2 N   :1s    -0.0000   0.0013   0.0267  -1.6021
   3 N   :1s     0.0000  -0.2968   0.0766   0.2717
   4 N   :1s     0.0000   2.1740  -0.9522  -0.4031
   5 N   :1s    -0.0000  -2.0155   1.9856   0.8448
   6 N   :2pz   -0.0000  -0.3493  -0.9178   0.0232
   7 N   :2pz   -0.0000   0.1836   1.5334  -0.0489
   8 N   :2pz   -0.0000  -1.5399  -0.1559   0.1268
   9 N   :2pz   -0.0000   0.8416  -0.5430  -0.2765
  10 N   :3d0   -0.0000   0.8897  -0.6520   0.0221
  11 N   :3d2+   0.7207  -0.0000   0.0000  -0.0000

 Molecular orbitals for symmetry species 6  (B2g)
 ------------------------------------------------

    Orbital         1        2        3        4        5
   1 N   :2px    0.2335  -0.0890   0.1786  -0.0533  -0.9199
   2 N   :2px    0.3419  -0.0950   0.5999   0.1026   1.1439
   3 N   :2px    0.3678  -0.3448  -1.5018  -0.3842  -0.7424
   4 N   :2px    0.1449   1.7838   1.0536   0.1678   0.3841
   5 N   :3d1+   0.0090   0.0065  -0.0191   0.8149  -0.0729

 Molecular orbitals for symmetry species 7  (B3g)
 ------------------------------------------------

    Orbital         1        2        3        4        5
   1 N   :2py    0.2335  -0.0890   0.1786  -0.0533  -0.9199
   2 N   :2py    0.3419  -0.0950   0.5999   0.1026   1.1439
   3 N   :2py    0.3678  -0.3448  -1.5018  -0.3842  -0.7424
   4 N   :2py    0.1449   1.7838   1.0536   0.1678   0.3841
   5 N   :3d1-   0.0090   0.0065  -0.0191   0.8149  -0.0729

 Molecular orbitals for symmetry species 8  (Au )
 ------------------------------------------------

    Orbital         1
   1 N   :3d2-   0.7207

  Total CPU  time used in SIRIUS :   0.98 seconds
  Total wall time used in SIRIUS :   1.01 seconds

 
     Date and time (Linux)  : Wed Feb 19 10:48:13 2020
     Host name              : Lab2-333-NPs                            


                     .---------------------------------------.
                     | End of Wave Function Section (SIRIUS) |
                     `---------------------------------------'


 Center of mass dipole origin  :    0.000000    0.000000    0.000000

 Center of mass gauge origin   :    0.000000    0.000000    0.000000


                 .------------------------------------------------.
                 | Starting in Static Property Section (ABACUS) - |
                 `------------------------------------------------'


 
     Date and time (Linux)  : Wed Feb 19 10:48:13 2020
     Host name              : Lab2-333-NPs                            


   ***************************************************************************
   ************************ FINAL RESULTS from ABACUS ************************
   ***************************************************************************


 
     Date and time (Linux)  : Wed Feb 19 10:48:13 2020
     Host name              : Lab2-333-NPs                            


                             Molecular geometry (au)
                             -----------------------

 N   _1     0.0000000000            0.0000000000            1.3417055487
 N   _2     0.0000000000            0.0000000000           -1.3417055487





                        Molecular wave function and energy
                        ----------------------------------

     Spatial symmetry   1 ( Ag  )
     Spin multiplicity  1
     2 * M_S            0
     State number       1
     Total charge       0

     Total energy       -109.3601866837 au (Hartrees)
                         -2975.84205712 eV
                           -287125.1259 kJ/mol
                            -68624.5521 kcal/mol


                   Scalar Breit-Pauli relativistic corrections
                   -------------------------------------------

     Darwin correction:                          0.2293283311 au
     Mass-velocity correction:                  -0.2878474282 au

     Total relativistic correction:             -0.0585190971 au ( 0.0535%)
     Non-relativistic + relativistic energy:  -109.4187057808 au



      (Note that these corrections are NOT included in the results below.)


                             Molecular gradient (au)
                             -----------------------

                         N   z      0.6538411604



 N   _1     0.0000000000            0.0000000000            0.3269205802
 N   _2     0.0000000000            0.0000000000           -0.3269205802





                                  Dipole moment
                                  -------------

                 au               Debye          C m (/(10**-30)
              0.000000           0.000000           0.000000


                             Dipole moment components
                             ------------------------

                    All dipole components are zero by symmetry


   Units:   1 a.u. =   2.54175 Debye 
            1 a.u. =   8.47835 (10**-30) C m (SI)




   Interatomic separations (in Angstrom):
   --------------------------------------

            N   _1      N   _2
            ------      ------
 N   _1:    0.000000
 N   _2:    1.420000    0.000000


  Max    interatomic separation is    1.4200 Angstrom (    2.6834 Bohr)
  between atoms    2 and    1, "N   _2" and "N   _1".

  Min YX interatomic separation is    1.4200 Angstrom (    2.6834 Bohr)


  Bond distances (Angstrom):
  --------------------------

                  atom 1     atom 2       distance
                  ------     ------       --------
  bond distance:  N   _2     N   _1       1.420000


  Total CPU  time used in ABACUS:   0.38 seconds
  Total wall time used in ABACUS:   0.37 seconds


                   .-------------------------------------------.
                   | End of Static Property Section (ABACUS) - |
                   `-------------------------------------------'


Building simple model Hessian by Roland Lindh ...

Initial model Hessian in internal coordinates has been calculated


           :::::::::::::::::::::::::::::::::::::::::::::::::::::::::::
           ::::::::::::::: Optimization Control Center :::::::::::::::
           :::::::::::::::::::::::::::::::::::::::::::::::::::::::::::



                                Next geometry (au)
                                ------------------

 N   _1     0.0000000000            0.0000000000            1.0917055487
 N   _2     0.0000000000            0.0000000000           -1.0917055487





                             Optimization information
                             ------------------------

 Iteration number               :       0
 End of optimization            :       F 
 Energy at this geometry is     :    -109.360186683733
 Norm of gradient               :       0.462335518329
 Norm of step                   :       0.500000000000
 Updated trust radius           :       0.500000000000
 Total effective Hessian index  :       0




 **************************************************************************************
 ****************** Output of molecule and basis set info suppressed ******************
 **************************************************************************************



                     .---------------------------------------.
                     | Starting in Integral Section (HERMIT) |
                     `---------------------------------------'



 ***************************************************************************************
 ****************** Output from **INTEGRALS input processing (HERMIT) ******************
 ***************************************************************************************


 - Using defaults, no **INTEGRALS input found

 Default print level:       -1

 Calculation of one- and two-electron Hamiltonian integrals.

 Center of mass  (bohr):      0.000000000000      0.000000000000      0.000000000000
 Operator center (bohr):      0.000000000000      0.000000000000      0.000000000000
 Gauge origin    (bohr):      0.000000000000      0.000000000000      0.000000000000
 Dipole origin   (bohr):      0.000000000000      0.000000000000      0.000000000000


                      Nuclear contribution to dipole moments
                      --------------------------------------

                    All dipole components are zero by symmetry



 Threshold for neglecting two-electron integrals:  1.00D-12
 HERMIT - Number of two-electron integrals written:       63489 ( 12.9% )
 HERMIT - Megabytes written:                              0.728

  Total CPU  time used in HERMIT:   0.05 seconds
  Total wall time used in HERMIT:   0.03 seconds


                        .----------------------------------.
                        | End of Integral Section (HERMIT) |
                        `----------------------------------'



                   .--------------------------------------------.
                   | Starting in Wave Function Section (SIRIUS) |
                   `--------------------------------------------'

* Read MO coefficients from SIRIUS.RST with label "NEWORB  " and header info: 19Feb20  FOCKDIIS

 **********************************************************************
 *SIRIUS* a direct, restricted step, second order MCSCF program       *
 **********************************************************************

 (Wave function specification suppressed here, see output above for initial geometry.)


 ***********************************************
 ***** DIIS acceleration of SCF iterations *****
 ***********************************************

 C1-DIIS algorithm; max error vectors =    8

 Iter      Total energy        Error norm    Delta(E)  DIIS dim.
 -----------------------------------------------------------------------------

Calculating AODFTINT
     (Precalculated AO two-electron integrals are transformed to P-supermatrix elements.
      Threshold for discarding integrals :  1.00D-12 )
      K-S energy, electrons, error :    -10.907805482990  13.9999996969   -3.03D-07
@  1    -109.460993171        8.11939D-01   -1.01D-01    1
      Virial theorem: -V/T =      2.008625
@    MULPOP   N   _1 -0.00; N   _2 -0.00; 
 -----------------------------------------------------------------------------
      K-S energy, electrons, error :    -11.038676923859  13.9999996985   -3.01D-07
@  2    -109.493682763        3.09465D-01   -3.27D-02    2
      Virial theorem: -V/T =      2.000213
@    MULPOP   N   _1 -0.00; N   _2 -0.00; 
 -----------------------------------------------------------------------------
      K-S energy, electrons, error :    -10.952248760131  13.9999996987   -3.01D-07
@  3    -109.498126900        1.10498D-01   -4.44D-03    3
      Virial theorem: -V/T =      2.007533
@    MULPOP   N   _1 -0.00; N   _2 -0.00; 
 -----------------------------------------------------------------------------
      K-S energy, electrons, error :    -10.975883095843  13.9999996990   -3.01D-07
@  4    -109.498782295        3.28352D-03   -6.55D-04    4
      Virial theorem: -V/T =      2.005576
@    MULPOP   N   _1  0.00; N   _2  0.00; 
 -----------------------------------------------------------------------------
      K-S energy, electrons, error :    -10.975245916522  13.9999996990   -3.01D-07
@  5    -109.498782850        6.37582D-04   -5.55D-07    5
      Virial theorem: -V/T =      2.005634
@    MULPOP   N   _1  0.00; N   _2  0.00; 
 -----------------------------------------------------------------------------
      K-S energy, electrons, error :    -10.975282043322  13.9999996990   -3.01D-07
@  6    -109.498782867        1.72550D-05   -1.67D-08    6
      Virial theorem: -V/T =      2.005630
@    MULPOP   N   _1  0.00; N   _2  0.00; 
 -----------------------------------------------------------------------------
      K-S energy, electrons, error :    -10.975284489356  13.9999996990   -3.01D-07
@  7    -109.498782867        3.64555D-06   -2.25D-11    7

@ *** DIIS converged in   7 iterations !
@     Converged SCF energy, gradient:   -109.498782866705    3.65D-06
    - total time used in SIRFCK :              0.00 seconds


 *** SCF orbital energy analysis ***

 Only the 20 lowest virtual orbital energies printed in each symmetry.

 Number of electrons :   14
 Orbital occupations :    3    1    1    0    2    0    0    0

 Sym       Kohn-Sham orbital energies

1 Ag    -14.43716559    -1.10240722    -0.43478889     0.06406720     0.14269528
          0.68261623     0.90355281     1.69118073     2.44840926     4.05217499
         35.05170143

2 B3u    -0.45543098     0.09419744     0.71792901     1.65222539     3.64359998


3 B2u    -0.45543098     0.09419744     0.71792901     1.65222539     3.64359998


4 B1g     1.69118075

5 B1u   -14.43611737    -0.57327962     0.08066109     0.25904748     0.45895826
          0.85092225     1.19278338     2.12023633     3.04092507     4.63090480
         35.93062991

6 B2g    -0.06022662     0.17022105     0.80625113     2.77961918     3.91157203


7 B3g    -0.06022662     0.17022105     0.80625113     2.77961918     3.91157203


8 Au      2.12023635

    E(LUMO) :    -0.06022662 au (symmetry 7)
  - E(HOMO) :    -0.43478889 au (symmetry 1)
  ------------------------------------------
    gap     :     0.37456227 au

 --- Writing SIRIFC interface file

 CPU and wall time for SCF :       0.969       0.975


                       .-----------------------------------.
                       | --- Final results from SIRIUS --- |
                       `-----------------------------------'


@    Spin multiplicity:           1
@    Spatial symmetry:            1 ( irrep  Ag  in D2h )
@    Total charge of molecule:    0

@    Final DFT energy:           -109.498782866705                 
@    Nuclear repulsion:            22.441948772867
@    Electronic energy:          -131.940731639572

@    Final gradient norm:           0.000003645555

 
     Date and time (Linux)  : Wed Feb 19 10:48:14 2020
     Host name              : Lab2-333-NPs                            

  Total CPU  time used in SIRIUS :   0.97 seconds
  Total wall time used in SIRIUS :   0.98 seconds

 
     Date and time (Linux)  : Wed Feb 19 10:48:14 2020
     Host name              : Lab2-333-NPs                            


                     .---------------------------------------.
                     | End of Wave Function Section (SIRIUS) |
                     `---------------------------------------'

 Trust radius increased due to good ratio.
 Updated trust radius   0.60000

 Center of mass dipole origin  :    0.000000    0.000000    0.000000

 Center of mass gauge origin   :    0.000000    0.000000    0.000000


                 .------------------------------------------------.
                 | Starting in Static Property Section (ABACUS) - |
                 `------------------------------------------------'


 
     Date and time (Linux)  : Wed Feb 19 10:48:14 2020
     Host name              : Lab2-333-NPs                            


   ***************************************************************************
   ************************ FINAL RESULTS from ABACUS ************************
   ***************************************************************************


 
     Date and time (Linux)  : Wed Feb 19 10:48:15 2020
     Host name              : Lab2-333-NPs                            
  Total CPU  time used in ABACUS:   0.36 seconds
  Total wall time used in ABACUS:   0.35 seconds


                   .-------------------------------------------.
                   | End of Static Property Section (ABACUS) - |
                   `-------------------------------------------'



           :::::::::::::::::::::::::::::::::::::::::::::::::::::::::::
           ::::::::::::::: Optimization Control Center :::::::::::::::
           :::::::::::::::::::::::::::::::::::::::::::::::::::::::::::



                                Next geometry (au)
                                ------------------

 N   _1     0.0000000000            0.0000000000            0.8930016183
 N   _2     0.0000000000            0.0000000000           -0.8930016183





                             Optimization information
                             ------------------------

 Iteration number               :       1
 End of optimization            :       F 
 Energy at this geometry is     :    -109.498782866705
 Energy change from last geom.  :      -0.138596182972
 Predicted change               :      -0.088275916759
 Ratio, actual/predicted change :       1.570033912545
 Norm of gradient               :       0.204740539239
 Norm of step                   :       0.397407860902
 Updated trust radius           :       0.600000000000
 Total effective Hessian index  :       0




 **************************************************************************************
 ****************** Output of molecule and basis set info suppressed ******************
 **************************************************************************************



                     .---------------------------------------.
                     | Starting in Integral Section (HERMIT) |
                     `---------------------------------------'



 ***************************************************************************************
 ****************** Output from **INTEGRALS input processing (HERMIT) ******************
 ***************************************************************************************


 - Using defaults, no **INTEGRALS input found

 Default print level:       -1

 Calculation of one- and two-electron Hamiltonian integrals.

 Center of mass  (bohr):      0.000000000000      0.000000000000      0.000000000000
 Operator center (bohr):      0.000000000000      0.000000000000      0.000000000000
 Gauge origin    (bohr):      0.000000000000      0.000000000000      0.000000000000
 Dipole origin   (bohr):      0.000000000000      0.000000000000      0.000000000000


                      Nuclear contribution to dipole moments
                      --------------------------------------

                    All dipole components are zero by symmetry



 Threshold for neglecting two-electron integrals:  1.00D-12
 HERMIT - Number of two-electron integrals written:       63489 ( 12.9% )
 HERMIT - Megabytes written:                              0.728

  Total CPU  time used in HERMIT:   0.02 seconds
  Total wall time used in HERMIT:   0.03 seconds


                        .----------------------------------.
                        | End of Integral Section (HERMIT) |
                        `----------------------------------'



                   .--------------------------------------------.
                   | Starting in Wave Function Section (SIRIUS) |
                   `--------------------------------------------'

* Read MO coefficients from SIRIUS.RST with label "NEWORB  " and header info: 19Feb20  FOCKDIIS

 **********************************************************************
 *SIRIUS* a direct, restricted step, second order MCSCF program       *
 **********************************************************************

 (Wave function specification suppressed here, see output above for initial geometry.)


 ***********************************************
 ***** DIIS acceleration of SCF iterations *****
 ***********************************************

 C1-DIIS algorithm; max error vectors =    8

 Iter      Total energy        Error norm    Delta(E)  DIIS dim.
 -----------------------------------------------------------------------------

Calculating AODFTINT because geometry has changed.
     (Precalculated AO two-electron integrals are transformed to P-supermatrix elements.
      Threshold for discarding integrals :  1.00D-12 )
      K-S energy, electrons, error :    -11.126639191040  13.9999999127   -8.73D-08
@  1    -109.374447246        1.07468D+00    1.24D-01    1
      Virial theorem: -V/T =      1.995311
@    MULPOP   N   _1 -0.00; N   _2 -0.00; 
 -----------------------------------------------------------------------------
      K-S energy, electrons, error :    -11.298012244780  13.9999999176   -8.24D-08
@  2    -109.405774212        4.38061D-01   -3.13D-02    2
      Virial theorem: -V/T =      1.983870
@    MULPOP   N   _1 -0.00; N   _2 -0.00; 
 -----------------------------------------------------------------------------
      K-S energy, electrons, error :    -11.185920758274  13.9999999169   -8.31D-08
@  3    -109.413878088        1.35652D-01   -8.10D-03    3
      Virial theorem: -V/T =      1.993066
@    MULPOP   N   _1  0.00; N   _2  0.00; 
 -----------------------------------------------------------------------------
      K-S energy, electrons, error :    -11.214933093537  13.9999999173   -8.27D-08
@  4    -109.414802688        6.14382D-03   -9.25D-04    4
      Virial theorem: -V/T =      1.990726
@    MULPOP   N   _1 -0.00; N   _2 -0.00; 
 -----------------------------------------------------------------------------
      K-S energy, electrons, error :    -11.213680993294  13.9999999173   -8.27D-08
@  5    -109.414804676        7.23132D-04   -1.99D-06    5
      Virial theorem: -V/T =      1.990829
@    MULPOP   N   _1  0.00; N   _2  0.00; 
 -----------------------------------------------------------------------------
      K-S energy, electrons, error :    -11.213686910112  13.9999999173   -8.27D-08
@  6    -109.414804694        3.61810D-05   -1.77D-08    6
      Virial theorem: -V/T =      1.990828
@    MULPOP   N   _1  0.00; N   _2  0.00; 
 -----------------------------------------------------------------------------
      K-S energy, electrons, error :    -11.213694799935  13.9999999173   -8.27D-08
@  7    -109.414804694        4.19008D-06   -8.39D-11    7

@ *** DIIS converged in   7 iterations !
@     Converged SCF energy, gradient:   -109.414804693975    4.19D-06
    - total time used in SIRFCK :              0.00 seconds


 *** SCF orbital energy analysis ***

 Only the 20 lowest virtual orbital energies printed in each symmetry.

 Number of electrons :   14
 Orbital occupations :    3    1    1    0    2    0    0    0

 Sym       Kohn-Sham orbital energies

1 Ag    -14.37852075    -1.22367917    -0.44470609     0.06914598     0.14710362
          0.64588341     0.91068731     1.60829610     2.53247143     4.50035004
         35.04771293

2 B3u    -0.52928860     0.08938221     0.68288562     1.85711420     3.70620485


3 B2u    -0.52928860     0.08938221     0.68288562     1.85711420     3.70620485


4 B1g     1.60829609

5 B1u   -14.37129628    -0.51350914     0.08596553     0.26406075     0.58667354
          1.04245971     1.44655267     2.27468371     3.58609818     4.09510125
         37.36523139

6 B2g     0.03723839     0.19465065     0.84729497     3.07119349     4.00411573


7 B3g     0.03723839     0.19465065     0.84729497     3.07119349     4.00411573


8 Au      2.27468370

    E(LUMO) :     0.03723839 au (symmetry 6)
  - E(HOMO) :    -0.44470609 au (symmetry 1)
  ------------------------------------------
    gap     :     0.48194449 au

 --- Writing SIRIFC interface file

 CPU and wall time for SCF :       0.984       0.971


                       .-----------------------------------.
                       | --- Final results from SIRIUS --- |
                       `-----------------------------------'


@    Spin multiplicity:           1
@    Spatial symmetry:            1 ( irrep  Ag  in D2h )
@    Total charge of molecule:    0

@    Final DFT energy:           -109.414804693975                 
@    Nuclear repulsion:            27.435560583633
@    Electronic energy:          -136.850365277609

@    Final gradient norm:           0.000004190078

 
     Date and time (Linux)  : Wed Feb 19 10:48:16 2020
     Host name              : Lab2-333-NPs                            

  Total CPU  time used in SIRIUS :   0.98 seconds
  Total wall time used in SIRIUS :   0.98 seconds

 
     Date and time (Linux)  : Wed Feb 19 10:48:16 2020
     Host name              : Lab2-333-NPs                            


                     .---------------------------------------.
                     | End of Wave Function Section (SIRIUS) |
                     `---------------------------------------'


 Step rejected because ratio between
        actual energy change :    0.08397817
 and predicted energy change :   -0.02876705
                          is :         -2.92
 Minimum for quadratic model :     0.316442
 Norm of new step            :     0.125757


 **************************************************************************************
 ****************** Output of molecule and basis set info suppressed ******************
 **************************************************************************************



                     .---------------------------------------.
                     | Starting in Integral Section (HERMIT) |
                     `---------------------------------------'



 ***************************************************************************************
 ****************** Output from **INTEGRALS input processing (HERMIT) ******************
 ***************************************************************************************


 - Using defaults, no **INTEGRALS input found

 Default print level:       -1

 Calculation of one- and two-electron Hamiltonian integrals.

 Center of mass  (bohr):      0.000000000000      0.000000000000      0.000000000000
 Operator center (bohr):      0.000000000000      0.000000000000      0.000000000000
 Gauge origin    (bohr):      0.000000000000      0.000000000000      0.000000000000
 Dipole origin   (bohr):      0.000000000000      0.000000000000      0.000000000000


                      Nuclear contribution to dipole moments
                      --------------------------------------

                    All dipole components are zero by symmetry



 Threshold for neglecting two-electron integrals:  1.00D-12
 HERMIT - Number of two-electron integrals written:       63489 ( 12.9% )
 HERMIT - Megabytes written:                              0.728

  Total CPU  time used in HERMIT:   0.02 seconds
  Total wall time used in HERMIT:   0.03 seconds


                        .----------------------------------.
                        | End of Integral Section (HERMIT) |
                        `----------------------------------'



                   .--------------------------------------------.
                   | Starting in Wave Function Section (SIRIUS) |
                   `--------------------------------------------'

* Read MO coefficients from SIRIUS.RST with label "NEWORB  " and header info: 19Feb20  FOCKDIIS

 **********************************************************************
 *SIRIUS* a direct, restricted step, second order MCSCF program       *
 **********************************************************************

 (Wave function specification suppressed here, see output above for initial geometry.)


 ***********************************************
 ***** DIIS acceleration of SCF iterations *****
 ***********************************************

 C1-DIIS algorithm; max error vectors =    8

 Iter      Total energy        Error norm    Delta(E)  DIIS dim.
 -----------------------------------------------------------------------------

Calculating AODFTINT because geometry has changed.
     (Precalculated AO two-electron integrals are transformed to P-supermatrix elements.
      Threshold for discarding integrals :  1.00D-12 )
      K-S energy, electrons, error :    -11.096595622247  14.0000003581    3.58D-07
@  1    -109.485664290        8.54930D-01   -7.09D-02    1
      Virial theorem: -V/T =      1.999426
@    MULPOP   N   _1  0.00; N   _2  0.00; 
 -----------------------------------------------------------------------------
      K-S energy, electrons, error :    -10.978389093802  14.0000003534    3.53D-07
@  2    -109.502913723        2.94713D-01   -1.72D-02    2
      Virial theorem: -V/T =      2.007438
@    MULPOP   N   _1  0.00; N   _2  0.00; 
 -----------------------------------------------------------------------------
      K-S energy, electrons, error :    -11.063244966724  14.0000003547    3.55D-07
@  3    -109.506653554        1.19285D-01   -3.74D-03    3
      Virial theorem: -V/T =      2.000454
@    MULPOP   N   _1 -0.00; N   _2 -0.00; 
 -----------------------------------------------------------------------------
      K-S energy, electrons, error :    -11.038081374875  14.0000003544    3.54D-07
@  4    -109.507401938        2.13273D-03   -7.48D-04    4
      Virial theorem: -V/T =      2.002550
@    MULPOP   N   _1 -0.00; N   _2 -0.00; 
 -----------------------------------------------------------------------------
      K-S energy, electrons, error :    -11.038406865295  14.0000003544    3.54D-07
@  5    -109.507402150        4.69326D-04   -2.13D-07    5
      Virial theorem: -V/T =      2.002517
@    MULPOP   N   _1 -0.00; N   _2 -0.00; 
 -----------------------------------------------------------------------------
      K-S energy, electrons, error :    -11.038393692528  14.0000003544    3.54D-07
@  6    -109.507402159        2.25730D-05   -8.32D-09    6
      Virial theorem: -V/T =      2.002518
@    MULPOP   N   _1 -0.00; N   _2 -0.00; 
 -----------------------------------------------------------------------------
      K-S energy, electrons, error :    -11.038398874982  14.0000003544    3.54D-07
@  7    -109.507402159        2.69056D-06   -3.39D-11    7

@ *** DIIS converged in   7 iterations !
@     Converged SCF energy, gradient:   -109.507402158710    2.69D-06
    - total time used in SIRFCK :              0.00 seconds


 *** SCF orbital energy analysis ***

 Only the 20 lowest virtual orbital energies printed in each symmetry.

 Number of electrons :   14
 Orbital occupations :    3    1    1    0    2    0    0    0

 Sym       Kohn-Sham orbital energies

1 Ag    -14.41976551    -1.14117840    -0.43781541     0.06575997     0.14369291
          0.66975383     0.90394678     1.66356727     2.50116871     4.20502960
         35.03045686

2 B3u    -0.47554852     0.09281318     0.70906383     1.70404585     3.66309754


3 B2u    -0.47554852     0.09281318     0.70906383     1.70404585     3.66309754


4 B1g     1.66356728

5 B1u   -14.41792951    -0.55526514     0.08263942     0.26074918     0.51647861
          0.91903109     1.22700367     2.16389300     3.15874788     4.49078105
         36.33826941

6 B2g    -0.03146859     0.17533112     0.81569085     2.86671703     3.94652853


7 B3g    -0.03146859     0.17533112     0.81569085     2.86671703     3.94652853


8 Au      2.16389301

    E(LUMO) :    -0.03146859 au (symmetry 7)
  - E(HOMO) :    -0.43781541 au (symmetry 1)
  ------------------------------------------
    gap     :     0.40634682 au

 --- Writing SIRIFC interface file

 CPU and wall time for SCF :       0.969       0.968


                       .-----------------------------------.
                       | --- Final results from SIRIUS --- |
                       `-----------------------------------'


@    Spin multiplicity:           1
@    Spatial symmetry:            1 ( irrep  Ag  in D2h )
@    Total charge of molecule:    0

@    Final DFT energy:           -109.507402158710                 
@    Nuclear repulsion:            23.813522966871
@    Electronic energy:          -133.320925125581

@    Final gradient norm:           0.000002690557

 
     Date and time (Linux)  : Wed Feb 19 10:48:17 2020
     Host name              : Lab2-333-NPs                            

  Total CPU  time used in SIRIUS :   0.98 seconds
  Total wall time used in SIRIUS :   0.97 seconds

 
     Date and time (Linux)  : Wed Feb 19 10:48:17 2020
     Host name              : Lab2-333-NPs                            


                     .---------------------------------------.
                     | End of Wave Function Section (SIRIUS) |
                     `---------------------------------------'


Acceptable step has been found.

 Center of mass dipole origin  :    0.000000    0.000000    0.000000

 Center of mass gauge origin   :    0.000000    0.000000    0.000000


                 .------------------------------------------------.
                 | Starting in Static Property Section (ABACUS) - |
                 `------------------------------------------------'


 
     Date and time (Linux)  : Wed Feb 19 10:48:17 2020
     Host name              : Lab2-333-NPs                            


   ***************************************************************************
   ************************ FINAL RESULTS from ABACUS ************************
   ***************************************************************************


 
     Date and time (Linux)  : Wed Feb 19 10:48:17 2020
     Host name              : Lab2-333-NPs                            
  Total CPU  time used in ABACUS:   0.36 seconds
  Total wall time used in ABACUS:   0.36 seconds


                   .-------------------------------------------.
                   | End of Static Property Section (ABACUS) - |
                   `-------------------------------------------'



           :::::::::::::::::::::::::::::::::::::::::::::::::::::::::::
           ::::::::::::::: Optimization Control Center :::::::::::::::
           :::::::::::::::::::::::::::::::::::::::::::::::::::::::::::



                                Next geometry (au)
                                ------------------

 N   _1     0.0000000000            0.0000000000            1.0368281386
 N   _2     0.0000000000            0.0000000000           -1.0368281386





                             Optimization information
                             ------------------------

 Iteration number               :       2
 End of optimization            :       F 
 Energy at this geometry is     :    -109.507402158710
 Energy change from last geom.  :      -0.008619292005
 Predicted change               :      -0.028767048310
 Ratio, actual/predicted change :       0.299623788708
 Norm of gradient               :       0.029850494444
 Norm of step                   :       0.016001890320
 Updated trust radius           :       0.125756710605
 Total effective Hessian index  :       0




 **************************************************************************************
 ****************** Output of molecule and basis set info suppressed ******************
 **************************************************************************************



                     .---------------------------------------.
                     | Starting in Integral Section (HERMIT) |
                     `---------------------------------------'



 ***************************************************************************************
 ****************** Output from **INTEGRALS input processing (HERMIT) ******************
 ***************************************************************************************


 - Using defaults, no **INTEGRALS input found

 Default print level:       -1

 Calculation of one- and two-electron Hamiltonian integrals.

 Center of mass  (bohr):      0.000000000000      0.000000000000      0.000000000000
 Operator center (bohr):      0.000000000000      0.000000000000      0.000000000000
 Gauge origin    (bohr):      0.000000000000      0.000000000000      0.000000000000
 Dipole origin   (bohr):      0.000000000000      0.000000000000      0.000000000000


                      Nuclear contribution to dipole moments
                      --------------------------------------

                    All dipole components are zero by symmetry



 Threshold for neglecting two-electron integrals:  1.00D-12
 HERMIT - Number of two-electron integrals written:       63489 ( 12.9% )
 HERMIT - Megabytes written:                              0.728

  Total CPU  time used in HERMIT:   0.03 seconds
  Total wall time used in HERMIT:   0.03 seconds


                        .----------------------------------.
                        | End of Integral Section (HERMIT) |
                        `----------------------------------'



                   .--------------------------------------------.
                   | Starting in Wave Function Section (SIRIUS) |
                   `--------------------------------------------'

* Read MO coefficients from SIRIUS.RST with label "NEWORB  " and header info: 19Feb20  FOCKDIIS

 **********************************************************************
 *SIRIUS* a direct, restricted step, second order MCSCF program       *
 **********************************************************************

 (Wave function specification suppressed here, see output above for initial geometry.)


 ***********************************************
 ***** DIIS acceleration of SCF iterations *****
 ***********************************************

 C1-DIIS algorithm; max error vectors =    8

 Iter      Total energy        Error norm    Delta(E)  DIIS dim.
 -----------------------------------------------------------------------------

Calculating AODFTINT because geometry has changed.
     (Precalculated AO two-electron integrals are transformed to P-supermatrix elements.
      Threshold for discarding integrals :  1.00D-12 )
      K-S energy, electrons, error :    -11.032899113374  14.0000003322    3.32D-07
@  1    -109.507473245        3.92160D-02   -7.11D-05    1
      Virial theorem: -V/T =      2.002807
@    MULPOP   N   _1  0.00; N   _2  0.00; 
 -----------------------------------------------------------------------------
      K-S energy, electrons, error :    -11.026781249997  14.0000003322    3.32D-07
@  2    -109.507520046        1.49420D-02   -4.68D-05    2
      Virial theorem: -V/T =      2.003231
@    MULPOP   N   _1  0.00; N   _2  0.00; 
 -----------------------------------------------------------------------------
      K-S energy, electrons, error :    -11.030904199946  14.0000003323    3.32D-07
@  3    -109.507530066        5.25608D-03   -1.00D-05    3
      Virial theorem: -V/T =      2.002888
@    MULPOP   N   _1 -0.00; N   _2 -0.00; 
 -----------------------------------------------------------------------------
      K-S energy, electrons, error :    -11.029781637667  14.0000003323    3.32D-07
@  4    -109.507531531        1.42665D-04   -1.46D-06    4
      Virial theorem: -V/T =      2.002981
@    MULPOP   N   _1 -0.00; N   _2 -0.00; 
 -----------------------------------------------------------------------------
      K-S energy, electrons, error :    -11.029807760447  14.0000003323    3.32D-07
@  5    -109.507531532        2.69208D-05   -1.03D-09    5
      Virial theorem: -V/T =      2.002979
@    MULPOP   N   _1 -0.00; N   _2 -0.00; 
 -----------------------------------------------------------------------------
      K-S energy, electrons, error :    -11.029807428512  14.0000003323    3.32D-07
@  6    -109.507531532        2.51693D-06   -2.72D-11    6

@ *** DIIS converged in   6 iterations !
@     Converged SCF energy, gradient:   -109.507531532051    2.52D-06
    - total time used in SIRFCK :              0.00 seconds


 *** SCF orbital energy analysis ***

 Only the 20 lowest virtual orbital energies printed in each symmetry.

 Number of electrons :   14
 Orbital occupations :    3    1    1    0    2    0    0    0

 Sym       Kohn-Sham orbital energies

1 Ag    -14.42208157    -1.13619390    -0.43743169     0.06554411     0.14354763
          0.67133865     0.90379008     1.66705424     2.49586417     4.18528812
         35.03321306

2 B3u    -0.47284439     0.09299620     0.71031581     1.69671382     3.66047811


3 B2u    -0.47284439     0.09299620     0.71031581     1.69671382     3.66047811


4 B1g     1.66705425

5 B1u   -14.42037774    -0.55759752     0.08240917     0.26053945     0.51010712
          0.90963340     1.22126344     2.15806898     3.14144236     4.51125485
         36.28186511

6 B2g    -0.03527711     0.17459509     0.81433986     2.85546832     3.94221734


7 B3g    -0.03527711     0.17459509     0.81433986     2.85546832     3.94221734


8 Au      2.15806899

    E(LUMO) :    -0.03527711 au (symmetry 6)
  - E(HOMO) :    -0.43743169 au (symmetry 1)
  ------------------------------------------
    gap     :     0.40215458 au

 --- Writing SIRIFC interface file

 CPU and wall time for SCF :       0.844       0.837


                       .-----------------------------------.
                       | --- Final results from SIRIUS --- |
                       `-----------------------------------'


@    Spin multiplicity:           1
@    Spatial symmetry:            1 ( irrep  Ag  in D2h )
@    Total charge of molecule:    0

@    Final DFT energy:           -109.507531532051                 
@    Nuclear repulsion:            23.629759926271
@    Electronic energy:          -133.137291458322

@    Final gradient norm:           0.000002516925

 
     Date and time (Linux)  : Wed Feb 19 10:48:18 2020
     Host name              : Lab2-333-NPs                            

  Total CPU  time used in SIRIUS :   0.84 seconds
  Total wall time used in SIRIUS :   0.84 seconds

 
     Date and time (Linux)  : Wed Feb 19 10:48:18 2020
     Host name              : Lab2-333-NPs                            


                     .---------------------------------------.
                     | End of Wave Function Section (SIRIUS) |
                     `---------------------------------------'

 Trust radius set equal to norm of step.
 Updated trust radius   0.01600

 Center of mass dipole origin  :    0.000000    0.000000    0.000000

 Center of mass gauge origin   :    0.000000    0.000000    0.000000


                 .------------------------------------------------.
                 | Starting in Static Property Section (ABACUS) - |
                 `------------------------------------------------'


 
     Date and time (Linux)  : Wed Feb 19 10:48:18 2020
     Host name              : Lab2-333-NPs                            


[...]


 *** SCF orbital energy analysis ***

 Only the 20 lowest virtual orbital energies printed in each symmetry.

 Number of electrons :   14
 Orbital occupations :    3    1    1    0    2    0    0    0

 Sym       Kohn-Sham orbital energies

1 Ag    -14.42166294    -1.13709836    -0.43750145     0.06558333     0.14357361
          0.67104955     0.90381627     1.66642001     2.49685821     4.18887391
         35.03270856

2 B3u    -0.47333218     0.09296312     0.71009107     1.69803016     3.66095172


3 B2u    -0.47333218     0.09296312     0.71009107     1.69803016     3.66095172


4 B1g     1.66642002

5 B1u   -14.41993594    -0.55717491     0.08245137     0.26057768     0.51128581
          0.91133237     1.22226753     2.15912105     3.14453042     4.50758644
         36.29202377

6 B2g    -0.03458839     0.17472663     0.81458177     2.85750730     3.94300455


7 B3g    -0.03458839     0.17472663     0.81458177     2.85750730     3.94300455


8 Au      2.15912106

    E(LUMO) :    -0.03458839 au (symmetry 6)
  - E(HOMO) :    -0.43750145 au (symmetry 1)
  ------------------------------------------
    gap     :     0.40291306 au

 --- Writing SIRIFC interface file

 CPU and wall time for SCF :       0.703       0.696


                       .-----------------------------------.
                       | --- Final results from SIRIUS --- |
                       `-----------------------------------'


@    Spin multiplicity:           1
@    Spatial symmetry:            1 ( irrep  Ag  in D2h )
@    Total charge of molecule:    0

@    Final DFT energy:           -109.507538517831                 
@    Nuclear repulsion:            23.662927293588
@    Electronic energy:          -133.170465811420

@    Final gradient norm:           0.000005522127

 
     Date and time (Linux)  : Wed Feb 19 10:48:19 2020
     Host name              : Lab2-333-NPs                            

  Total CPU  time used in SIRIUS :   0.70 seconds
  Total wall time used in SIRIUS :   0.70 seconds

 
     Date and time (Linux)  : Wed Feb 19 10:48:19 2020
     Host name              : Lab2-333-NPs                            


                     .---------------------------------------.
                     | End of Wave Function Section (SIRIUS) |
                     `---------------------------------------'

 Trust radius squarely increased due to very good ratio.
 Updated trust radius   0.01600

 Center of mass dipole origin  :    0.000000    0.000000    0.000000

 Center of mass gauge origin   :    0.000000    0.000000    0.000000


                 .------------------------------------------------.
                 | Starting in Static Property Section (ABACUS) - |
                 `------------------------------------------------'


 
     Date and time (Linux)  : Wed Feb 19 10:48:19 2020
     Host name              : Lab2-333-NPs                            


   ***************************************************************************
   ************************ FINAL RESULTS from ABACUS ************************
   ***************************************************************************


 
     Date and time (Linux)  : Wed Feb 19 10:48:19 2020
     Host name              : Lab2-333-NPs                            
  Total CPU  time used in ABACUS:   0.38 seconds
  Total wall time used in ABACUS:   0.36 seconds


                   .-------------------------------------------.
                   | End of Static Property Section (ABACUS) - |
                   `-------------------------------------------'



           :::::::::::::::::::::::::::::::::::::::::::::::::::::::::::
           ::::::::::::::: Optimization Control Center :::::::::::::::
           :::::::::::::::::::::::::::::::::::::::::::::::::::::::::::



                                Next geometry (au)
                                ------------------

 N   _1     0.0000000000            0.0000000000            1.0353392882
 N   _2     0.0000000000            0.0000000000           -1.0353392882





                             Optimization information
                             ------------------------

 Iteration number               :       4
 End of optimization            :       F 
 Energy at this geometry is     :    -109.507538517831
 Energy change from last geom.  :      -0.000006985780
 Predicted change               :      -0.000006808457
 Ratio, actual/predicted change :       1.026044594721
 Norm of gradient               :       0.000158289475
 Norm of step                   :       0.000071140798
 Updated trust radius           :       0.016001890320
 Total effective Hessian index  :       0




 **************************************************************************************
 ****************** Output of molecule and basis set info suppressed ******************
 **************************************************************************************



                     .---------------------------------------.
                     | Starting in Integral Section (HERMIT) |
                     `---------------------------------------'



 ***************************************************************************************
 ****************** Output from **INTEGRALS input processing (HERMIT) ******************
 ***************************************************************************************


 - Using defaults, no **INTEGRALS input found

 Default print level:       -1

 Calculation of one- and two-electron Hamiltonian integrals.

 Center of mass  (bohr):      0.000000000000      0.000000000000      0.000000000000
 Operator center (bohr):      0.000000000000      0.000000000000      0.000000000000
 Gauge origin    (bohr):      0.000000000000      0.000000000000      0.000000000000
 Dipole origin   (bohr):      0.000000000000      0.000000000000      0.000000000000


                      Nuclear contribution to dipole moments
                      --------------------------------------

                    All dipole components are zero by symmetry



 Threshold for neglecting two-electron integrals:  1.00D-12
 HERMIT - Number of two-electron integrals written:       63489 ( 12.9% )
 HERMIT - Megabytes written:                              0.728

  Total CPU  time used in HERMIT:   0.03 seconds
  Total wall time used in HERMIT:   0.03 seconds


                        .----------------------------------.
                        | End of Integral Section (HERMIT) |
                        `----------------------------------'



                   .--------------------------------------------.
                   | Starting in Wave Function Section (SIRIUS) |
                   `--------------------------------------------'

* Read MO coefficients from SIRIUS.RST with label "NEWORB  " and header info: 19Feb20  FOCKDIIS

 **********************************************************************
 *SIRIUS* a direct, restricted step, second order MCSCF program       *
 **********************************************************************

 (Wave function specification suppressed here, see output above for initial geometry.)


 ***********************************************
 ***** DIIS acceleration of SCF iterations *****
 ***********************************************

 C1-DIIS algorithm; max error vectors =    8

 Iter      Total energy        Error norm    Delta(E)  DIIS dim.
 -----------------------------------------------------------------------------

Calculating AODFTINT because geometry has changed.
     (Precalculated AO two-electron integrals are transformed to P-supermatrix elements.
      Threshold for discarding integrals :  1.00D-12 )
      K-S energy, electrons, error :    -11.031379381597  14.0000003412    3.41D-07
@  1    -109.507538521        1.71967D-04   -2.92D-09    1
      Virial theorem: -V/T =      2.002895
@    MULPOP   N   _1 -0.00; N   _2 -0.00; 
 -----------------------------------------------------------------------------
      K-S energy, electrons, error :    -11.031406246897  14.0000003412    3.41D-07
@  2    -109.507538522        6.48798D-05   -9.20D-10    2
      Virial theorem: -V/T =      2.002893
@    MULPOP   N   _1 -0.00; N   _2 -0.00; 
 -----------------------------------------------------------------------------
      K-S energy, electrons, error :    -11.031388178182  14.0000003412    3.41D-07
@  3    -109.507538522        2.31935D-05   -1.89D-10    3
      Virial theorem: -V/T =      2.002895
@    MULPOP   N   _1  0.00; N   _2  0.00; 
 -----------------------------------------------------------------------------
      K-S energy, electrons, error :    -11.031393017412  14.0000003412    3.41D-07
@  4    -109.507538522        2.68231D-06   -2.80D-11    4

@ *** DIIS converged in   4 iterations !
@     Converged SCF energy, gradient:   -109.507538521888    2.68D-06
    - total time used in SIRFCK :              0.00 seconds


 *** SCF orbital energy analysis ***

 Only the 20 lowest virtual orbital energies printed in each symmetry.

 Number of electrons :   14
 Orbital occupations :    3    1    1    0    2    0    0    0

 Sym       Kohn-Sham orbital energies

1 Ag    -14.42165283    -1.13712090    -0.43750315     0.06558429     0.14357422
          0.67104242     0.90381688     1.66640430     2.49688231     4.18896151
         35.03269607

2 B3u    -0.47334433     0.09296228     0.71008544     1.69806232     3.66096318


3 B2u    -0.47334433     0.09296228     0.71008544     1.69806232     3.66096318


4 B1g     1.66640431

5 B1u   -14.41992527    -0.55716451     0.08245240     0.26057860     0.51131450
          0.91137396     1.22229218     2.15914670     3.14460621     4.50749635
         36.29227273

6 B2g    -0.03457158     0.17472984     0.81458765     2.85755718     3.94302364


7 B3g    -0.03457158     0.17472984     0.81458765     2.85755718     3.94302364


8 Au      2.15914671

    E(LUMO) :    -0.03457158 au (symmetry 6)
  - E(HOMO) :    -0.43750315 au (symmetry 1)
  ------------------------------------------
    gap     :     0.40293157 au

 --- Writing SIRIFC interface file

 CPU and wall time for SCF :       0.578       0.572


                       .-----------------------------------.
                       | --- Final results from SIRIUS --- |
                       `-----------------------------------'


@    Spin multiplicity:           1
@    Spatial symmetry:            1 ( irrep  Ag  in D2h )
@    Total charge of molecule:    0

@    Final DFT energy:           -109.507538521888                 
@    Nuclear repulsion:            23.663740263569
@    Electronic energy:          -133.171278785456

@    Final gradient norm:           0.000002682307

 
     Date and time (Linux)  : Wed Feb 19 10:48:20 2020
     Host name              : Lab2-333-NPs                            

  Total CPU  time used in SIRIUS :   0.58 seconds
  Total wall time used in SIRIUS :   0.58 seconds

 
     Date and time (Linux)  : Wed Feb 19 10:48:20 2020
     Host name              : Lab2-333-NPs                            


                     .---------------------------------------.
                     | End of Wave Function Section (SIRIUS) |
                     `---------------------------------------'

 Trust radius squarely increased due to very good ratio.
 Updated trust radius   0.01600

 Center of mass dipole origin  :    0.000000    0.000000    0.000000

 Center of mass gauge origin   :    0.000000    0.000000    0.000000


                 .------------------------------------------------.
                 | Starting in Static Property Section (ABACUS) - |
                 `------------------------------------------------'


 
     Date and time (Linux)  : Wed Feb 19 10:48:20 2020
     Host name              : Lab2-333-NPs                            


   ***************************************************************************
   ************************ FINAL RESULTS from ABACUS ************************
   ***************************************************************************


 
     Date and time (Linux)  : Wed Feb 19 10:48:20 2020
     Host name              : Lab2-333-NPs                            
  Total CPU  time used in ABACUS:   0.36 seconds
  Total wall time used in ABACUS:   0.36 seconds


                   .-------------------------------------------.
                   | End of Static Property Section (ABACUS) - |
                   `-------------------------------------------'



            *********************************************************
            *** Output from geometry convergence control (MINEND) ***
            *********************************************************


 Energy converged       yes 
 Gradient converged     yes 
 Step converged         yes 
 Conditions fullfilled   3
 Required conditions     2
 Totally sym. index      0
 Hessian index           0
 End of optimization    yes 


           :::::::::::::::::::::::::::::::::::::::::::::::::::::::::::
           ::::::::::::::: Optimization Control Center :::::::::::::::
           :::::::::::::::::::::::::::::::::::::::::::::::::::::::::::



                               Final geometry (au)
                               -------------------

 N   _1     0.0000000000            0.0000000000            1.0353392882
 N   _2     0.0000000000            0.0000000000           -1.0353392882





                             Optimization information
                             ------------------------

 Iteration number               :       5
 End of optimization            :       T 
 Energy at this geometry is     :    -109.507538521888
 Energy change from last geom.  :      -0.000000004056
 Predicted change               :      -0.000000003981
 Ratio, actual/predicted change :       1.018858377713
 Norm of gradient               :       0.000002660182
 Norm of step                   :       0.000001175818
 Updated trust radius           :       0.016001890320
 Total effective Hessian index  :       0




          <<<<<<<<<<<<<<<<<<<<<<<<<<<<<<<<<<<<<<<<<<<<<<<<<<<<<<<<<<<<<<
          <<<<<<<<<<<<<<<<<<<<  End of Optimization <<<<<<<<<<<<<<<<<<<<
          <<<<<<<<<<<<<<<<<<<<<<<<<<<<<<<<<<<<<<<<<<<<<<<<<<<<<<<<<<<<<<



                              Final geometry (bohr)
                              ---------------------

 N   _1     0.0000000000            0.0000000000            1.0353392882
 N   _2     0.0000000000            0.0000000000           -1.0353392882





                      Final geometry (xyz format; angstrom)
                      -------------------------------------

2

N        0.0000000000            0.0000000000            0.5478779567
N        0.0000000000            0.0000000000           -0.5478779567



@ Iter     Energy        Change       GradNorm  Index   StepLen    TrustRad #Rej
@ ------------------------------------------------------------------------------
@   0     -109.360187     0.000000     0.462336    0    0.500000    0.500000   0 
@   1     -109.498783    -0.138596     0.204741    0    0.125757*   0.600000   1 
@   2     -109.507402    -0.008619     0.029850    0    0.016002*   0.125757   0 
@   3     -109.507532    -0.000129     0.006625    0    0.002907*   0.016002   0 
@   4     -109.507539    -0.000007     0.000158    0    0.000071*   0.016002   0 
@   5     -109.507539    -0.000000     0.000003    0    0.000001*   0.016002   0 

@  *) Newton step taken.


   Interatomic separations (in Angstrom):
   --------------------------------------

            N   _1      N   _2
            ------      ------
 N   _1:    0.000000
 N   _2:    1.095756    0.000000


  Max    interatomic separation is    1.0958 Angstrom (    2.0707 Bohr)
  between atoms    2 and    1, "N   _2" and "N   _1".

  Min YX interatomic separation is    1.0958 Angstrom (    2.0707 Bohr)


  Bond distances (Angstrom):
  --------------------------

                  atom 1     atom 2       distance
                  ------     ------       --------
  bond distance:  N   _2     N   _1       1.095756



@ Geometry converged in  6 iterations!

@ Energy at final geometry is       :    -109.507539 a.u.
@ Energy change during optimization :      -0.147352 a.u.
@                                           -386.872 kJ/mol


 Center of mass dipole origin  :    0.000000    0.000000    0.000000

 Center of mass gauge origin   :    0.000000    0.000000    0.000000


                 .------------------------------------------------.
                 | Starting in Static Property Section (ABACUS) - |
                 `------------------------------------------------'


 
     Date and time (Linux)  : Wed Feb 19 10:48:20 2020
     Host name              : Lab2-333-NPs                            


   ***************************************************************************
   ************************ FINAL RESULTS from ABACUS ************************
   ***************************************************************************


 
     Date and time (Linux)  : Wed Feb 19 10:48:20 2020
     Host name              : Lab2-333-NPs                            


                             Molecular geometry (au)
                             -----------------------

 N   _1     0.0000000000            0.0000000000            1.0353392882
 N   _2     0.0000000000            0.0000000000           -1.0353392882





                        Molecular wave function and energy
                        ----------------------------------

     Spatial symmetry   1 ( Ag  )
     Spin multiplicity  1
     2 * M_S            0
     State number       1
     Total charge       0

     Total energy       -109.5075385219 au (Hartrees)
                         -2979.85170461 eV
                           -287511.9981 kJ/mol
                            -68717.0167 kcal/mol


                   Scalar Breit-Pauli relativistic corrections
                   -------------------------------------------

     Darwin correction:                          0.2287222526 au
     Mass-velocity correction:                  -0.2871699986 au

     Total relativistic correction:             -0.0584477460 au ( 0.0534%)
     Non-relativistic + relativistic energy:  -109.5659862678 au



      (Note that these corrections are NOT included in the results below.)


                                  Dipole moment
                                  -------------

                 au               Debye          C m (/(10**-30)
              0.000000           0.000000           0.000000


                             Dipole moment components
                             ------------------------

                    All dipole components are zero by symmetry


   Units:   1 a.u. =   2.54175 Debye 
            1 a.u. =   8.47835 (10**-30) C m (SI)




   Interatomic separations (in Angstrom):
   --------------------------------------

            N   _1      N   _2
            ------      ------
 N   _1:    0.000000
 N   _2:    1.095756    0.000000


  Max    interatomic separation is    1.0958 Angstrom (    2.0707 Bohr)
  between atoms    2 and    1, "N   _2" and "N   _1".

  Min YX interatomic separation is    1.0958 Angstrom (    2.0707 Bohr)


  Bond distances (Angstrom):
  --------------------------

                  atom 1     atom 2       distance
                  ------     ------       --------
  bond distance:  N   _2     N   _1       1.095756


  Total CPU  time used in ABACUS:   0.02 seconds
  Total wall time used in ABACUS:   0.00 seconds


                   .-------------------------------------------.
                   | End of Static Property Section (ABACUS) - |
                   `-------------------------------------------'

  Total CPU  time used in DALTON:   8.59 seconds
  Total wall time used in DALTON:   8.64 seconds

 
     Date and time (Linux)  : Wed Feb 19 10:48:20 2020
     Host name              : Lab2-333-NPs                            
