

     ************************************************************************
     *************** Dalton - An Electronic Structure Program ***************
     ************************************************************************

    This is output from DALTON release Dalton2018.1 (2019)
         ( Web site: http://daltonprogram.org )

   ----------------------------------------------------------------------------

    NOTE:
     
    Dalton is an experimental code for the evaluation of molecular
    properties using (MC)SCF, DFT, CI, and CC wave functions.
    The authors accept no responsibility for the performance of
    the code or for the correctness of the results.
     
    The code (in whole or part) is provided under a licence and
    is not to be reproduced for further distribution without
    the written permission of the authors or their representatives.
     
    See the home page "http://daltonprogram.org" for further information.
     
    If results obtained with this code are published,
    the appropriate citations would be both of:
     
       K. Aidas, C. Angeli, K. L. Bak, V. Bakken, R. Bast,
       L. Boman, O. Christiansen, R. Cimiraglia, S. Coriani,
       P. Dahle, E. K. Dalskov, U. Ekstroem,
       T. Enevoldsen, J. J. Eriksen, P. Ettenhuber, B. Fernandez,
       L. Ferrighi, H. Fliegl, L. Frediani, K. Hald, A. Halkier,
       C. Haettig, H. Heiberg, T. Helgaker, A. C. Hennum,
       H. Hettema, E. Hjertenaes, S. Hoest, I.-M. Hoeyvik,
       M. F. Iozzi, B. Jansik, H. J. Aa. Jensen, D. Jonsson,
       P. Joergensen, J. Kauczor, S. Kirpekar,
       T. Kjaergaard, W. Klopper, S. Knecht, R. Kobayashi, H. Koch,
       J. Kongsted, A. Krapp, K. Kristensen, A. Ligabue,
       O. B. Lutnaes, J. I. Melo, K. V. Mikkelsen, R. H. Myhre,
       C. Neiss, C. B. Nielsen, P. Norman, J. Olsen,
       J. M. H. Olsen, A. Osted, M. J. Packer, F. Pawlowski,
       T. B. Pedersen, P. F. Provasi, S. Reine, Z. Rinkevicius,
       T. A. Ruden, K. Ruud, V. Rybkin, P. Salek, C. C. M. Samson,
       A. Sanchez de Meras, T. Saue, S. P. A. Sauer,
       B. Schimmelpfennig, K. Sneskov, A. H. Steindal,
       K. O. Sylvester-Hvid, P. R. Taylor, A. M. Teale,
       E. I. Tellgren, D. P. Tew, A. J. Thorvaldsen, L. Thoegersen,
       O. Vahtras, M. A. Watson, D. J. D. Wilson, M. Ziolkowski
       and H. Agren,
       "The Dalton quantum chemistry program system",
       WIREs Comput. Mol. Sci. 2014, 4:269–284 (doi: 10.1002/wcms.1172)
     
    and
     
       Dalton, a molecular electronic structure program,
       Release Dalton2018.1 (2019), see http://daltonprogram.org
   ----------------------------------------------------------------------------

    Authors in alphabetical order (major contribution(s) in parenthesis):

  Kestutis Aidas,           Vilnius University,           Lithuania   (QM/MM)
  Celestino Angeli,         University of Ferrara,        Italy       (NEVPT2)
  Keld L. Bak,              UNI-C,                        Denmark     (AOSOPPA, non-adiabatic coupling, magnetic properties)
  Vebjoern Bakken,          University of Oslo,           Norway      (DALTON; geometry optimizer, symmetry detection)
  Radovan Bast,             UiT The Arctic U. of Norway,  Norway      (DALTON installation and execution frameworks)
  Pablo Baudin,             University of Valencia,       Spain       (Cholesky excitation energies)
  Linus Boman,              NTNU,                         Norway      (Cholesky decomposition and subsystems)
  Ove Christiansen,         Aarhus University,            Denmark     (CC module)
  Renzo Cimiraglia,         University of Ferrara,        Italy       (NEVPT2)
  Sonia Coriani,            Technical Univ. of Denmark,   Denmark     (CC module, MCD in RESPONS)
  Janusz Cukras,            University of Trieste,        Italy       (MChD in RESPONS)
  Paal Dahle,               University of Oslo,           Norway      (Parallelization)
  Erik K. Dalskov,          UNI-C,                        Denmark     (SOPPA)
  Thomas Enevoldsen,        Univ. of Southern Denmark,    Denmark     (SOPPA)
  Janus J. Eriksen,         Aarhus University,            Denmark     (Polarizable embedding model, TDA)
  Rasmus Faber,             University of Copenhagen,     Denmark     (Vib.avg. NMR with SOPPA, parallel AO-SOPPA)
  Tobias Fahleson,          KTH Stockholm,                Sweden      (Damped cubic response)
  Berta Fernandez,          U. of Santiago de Compostela, Spain       (doublet spin, ESR in RESPONS)
  Lara Ferrighi,            Aarhus University,            Denmark     (PCM Cubic response)
  Heike Fliegl,             University of Oslo,           Norway      (CCSD(R12))
  Luca Frediani,            UiT The Arctic U. of Norway,  Norway      (PCM)
  Bin Gao,                  UiT The Arctic U. of Norway,  Norway      (Gen1Int library)
  Christof Haettig,         Ruhr-University Bochum,       Germany     (CC module)
  Kasper Hald,              Aarhus University,            Denmark     (CC module)
  Asger Halkier,            Aarhus University,            Denmark     (CC module)
  Frederik Beyer Hansen,    University of Copenhagen,     Denmark     (Parallel AO-SOPPA)
  Erik D. Hedegaard,        Univ. of Southern Denmark,    Denmark     (Polarizable embedding model, QM/MM)
  Hanne Heiberg,            University of Oslo,           Norway      (geometry analysis, selected one-electron integrals)
  Trygve Helgaker,          University of Oslo,           Norway      (DALTON; ABACUS, ERI, DFT modules, London, and much more)
  Alf Christian Hennum,     University of Oslo,           Norway      (Parity violation)
  Hinne Hettema,            University of Auckland,       New Zealand (quadratic response in RESPONS; SIRIUS supersymmetry)
  Eirik Hjertenaes,         NTNU,                         Norway      (Cholesky decomposition)
  Pi A. B. Haase,           University of Copenhagen,     Denmark     (Triplet AO-SOPPA)
  Maria Francesca Iozzi,    University of Oslo,           Norway      (RPA)
  Christoph Jacob           TU Braunschweig               Germany     (Frozen density embedding model)
  Brano Jansik              Technical Univ. of Ostrava    Czech Rep.  (DFT cubic response)
  Hans Joergen Aa. Jensen,  Univ. of Southern Denmark,    Denmark     (DALTON; SIRIUS, RESPONS, ABACUS modules, London, and much more)
  Dan Jonsson,              UiT The Arctic U. of Norway,  Norway      (cubic response in RESPONS module)
  Poul Joergensen,          Aarhus University,            Denmark     (RESPONS, ABACUS, and CC modules)
  Maciej Kaminski,          University of Warsaw,         Poland      (CPPh in RESPONS)
  Joanna Kauczor,           Linkoeping University,        Sweden      (Complex polarization propagator (CPP) module)
  Sheela Kirpekar,          Univ. of Southern Denmark,    Denmark     (Mass-velocity & Darwin integrals)
  Wim Klopper,              KIT Karlsruhe,                Germany     (R12 code in CC, SIRIUS, and ABACUS modules)
  Stefan Knecht,            ETH Zurich,                   Switzerland (Parallel CI and MCSCF)
  Rika Kobayashi,           Australian National Univ.,    Australia   (DIIS in CC, London in MCSCF)
  Henrik Koch,              NTNU,                         Norway      (CC module, Cholesky decomposition)
  Jacob Kongsted,           Univ. of Southern Denmark,    Denmark     (Polarizable embedding model, QM/MM)
  Andrea Ligabue,           University of Modena,         Italy       (CTOCD, AOSOPPA)
  Nanna H. List             Univ. of Southern Denmark,    Denmark     (Polarizable embedding model)
  Ola B. Lutnaes,           University of Oslo,           Norway      (DFT Hessian)
  Juan I. Melo,             University of Buenos Aires,   Argentina   (LRESC, Relativistic Effects on NMR Shieldings)
  Kurt V. Mikkelsen,        University of Copenhagen,     Denmark     (MC-SCRF and QM/MM)
  Rolf H. Myhre,            NTNU,                         Norway      (Subsystems and CC3)
  Christian Neiss,          Univ. Erlangen-Nuernberg,     Germany     (CCSD(R12))
  Christian B. Nielsen,     University of Copenhagen,     Denmark     (QM/MM)
  Patrick Norman,           KTH Stockholm,                Sweden      (Cubic response and complex frequency response in RESPONS)
  Jeppe Olsen,              Aarhus University,            Denmark     (SIRIUS CI/density modules)
  Jogvan Magnus H. Olsen,   Univ. of Southern Denmark,    Denmark     (Polarizable embedding model, QM/MM)
  Anders Osted,             Copenhagen University,        Denmark     (QM/MM)
  Martin J. Packer,         University of Sheffield,      UK          (SOPPA)
  Filip Pawlowski,          Kazimierz Wielki University,  Poland      (CC3)
  Morten N. Pedersen,       Univ. of Southern Denmark,    Denmark     (Polarizable embedding model)
  Thomas B. Pedersen,       University of Oslo,           Norway      (Cholesky decomposition)
  Patricio F. Provasi,      University of Northeastern,   Argentina   (Analysis of coupling constants in localized orbitals)
  Zilvinas Rinkevicius,     KTH Stockholm,                Sweden      (open-shell DFT, ESR)
  Elias Rudberg,            KTH Stockholm,                Sweden      (DFT grid and basis info)
  Torgeir A. Ruden,         University of Oslo,           Norway      (Numerical derivatives in ABACUS)
  Kenneth Ruud,             UiT The Arctic U. of Norway,  Norway      (DALTON; ABACUS magnetic properties and much more)
  Pawel Salek,              KTH Stockholm,                Sweden      (DALTON; DFT code)
  Claire C. M. Samson       University of Karlsruhe       Germany     (Boys localization, r12 integrals in ERI)
  Alfredo Sanchez de Meras, University of Valencia,       Spain       (CC module, Cholesky decomposition)
  Trond Saue,               Paul Sabatier University,     France      (direct Fock matrix construction)
  Stephan P. A. Sauer,      University of Copenhagen,     Denmark     (SOPPA(CCSD), SOPPA prop., AOSOPPA, vibrational g-factors)
  Andre S. P. Gomes,        CNRS/Universite de Lille,     France      (Frozen density embedding model)
  Bernd Schimmelpfennig,    Forschungszentrum Karlsruhe,  Germany     (AMFI module)
  Kristian Sneskov,         Aarhus University,            Denmark     (Polarizable embedding model, QM/MM)
  Arnfinn H. Steindal,      UiT The Arctic U. of Norway,  Norway      (parallel QM/MM, Polarizable embedding model)
  Casper Steinmann,         Univ. of Southern Denmark,    Denmark     (QFIT, Polarizable embedding model)
  K. O. Sylvester-Hvid,     University of Copenhagen,     Denmark     (MC-SCRF)
  Peter R. Taylor,          VLSCI/Univ. of Melbourne,     Australia   (Symmetry handling ABACUS, integral transformation)
  Andrew M. Teale,          University of Nottingham,     England     (DFT-AC, DFT-D)
  David P. Tew,             University of Bristol,        England     (CCSD(R12))
  Olav Vahtras,             KTH Stockholm,                Sweden      (triplet response, spin-orbit, ESR, TDDFT, open-shell DFT)
  Lucas Visscher,           Vrije Universiteit Amsterdam, Netherlands (Frozen density embedding model)
  David J. Wilson,          La Trobe University,          Australia   (DFT Hessian and DFT magnetizabilities)
  Hans Agren,               KTH Stockholm,                Sweden      (SIRIUS module, RESPONS, MC-SCRF solvation model)
 --------------------------------------------------------------------------------

     Date and time (Linux)  : Wed Feb 19 12:05:28 2020
     Host name              : Lab2-333-NPs                            

 * Work memory size             :  1024000000 =  7.629 gigabytes.

 * Directories for basis set searches:
   1) /home/lab333/dalton/build_2018_atlas
   2) /home/lab333/dalton/build_2018_atlas/basis


Compilation information
-----------------------

 Who compiled             | lab333
 Host                     | Lab2-333-NPs
 System                   | Linux-4.4.0-43-Microsoft
 CMake generator          | Unix Makefiles
 Processor                | x86_64
 64-bit integers          | OFF
 MPI                      | OFF
 Fortran compiler         | /usr/bin/gfortran
 Fortran compiler version | GNU Fortran (Ubuntu 7.3.0-27ubuntu1~18.04) 7.3.0
 C compiler               | /usr/bin/gcc
 C compiler version       | gcc (Ubuntu 7.3.0-27ubuntu1~18.04) 7.3.0
 C++ compiler             | /usr/bin/g++
 C++ compiler version     | g++ (Ubuntu 7.3.0-27ubuntu1~18.04) 7.3.0
 BLAS                     | /usr/lib/x86_64-linux-gnu/libf77blas.so;/usr/lib/x
                          | 86_64-linux-gnu/libcblas.so;/usr/lib/x86_64-linux-
                          | gnu/libatlas.so
 LAPACK                   | /usr/lib/x86_64-linux-gnu/libatlas.so;/usr/lib/x86
                          | _64-linux-gnu/atlas/liblapack.so
 Static linking           | OFF
 Last Git revision        | da625bf48c74028e805616daee31bc5d76b3a20d
 Git branch               | (HEAD detached at Dalton2018.1)
 Configuration time       | 2019-01-18 10:20:51.437510


   Content of the .dal input file
 ----------------------------------

**DALTON
.RUN RESPONSE
.DIRECT
**WAVE FUNCTIONS
.DFT
CAMB3LYP
**RESPONSE
*CUBIC
.THREE-PHOTON
.ROOTS
 3 3 3 3 3 3 3 3
.PRINT
 5
**END OF INPUT


   Content of the .mol file
 ----------------------------

BASIS
6-311+G*
 N2
 Generated by the Dalton Input File Plugin for Avogadro
Atomtypes=1
Charge=7.0 Atoms=2
N1          0.0000000000            0.0000000000            1.0353392882
N2          0.0000000000            0.0000000000           -1.0353392882


       *******************************************************************
       *********** Output from DALTON general input processing ***********
       *******************************************************************

 --------------------------------------------------------------------------------
   Overall default print level:    0
   Print level for DALTON.STAT:    1

    AO-direct calculation (in sections where implemented)
    HERMIT 1- and 2-electron integral sections will be executed
    "Old" integral transformation used (limited to max 255 basis functions)
    Wave function sections will be executed (SIRIUS module)
    Dynamic molecular response properties section will be executed (RESPONSE module)
 --------------------------------------------------------------------------------


   ****************************************************************************
   *************** Output of molecule and basis set information ***************
   ****************************************************************************


    The two title cards from your ".mol" input:
    ------------------------------------------------------------------------
 1:  N2                                                                     
 2:  Generated by the Dalton Input File Plugin for Avogadro                 
    ------------------------------------------------------------------------

  Atomic type no.    1
  --------------------
  Nuclear charge:   7.00000
  Number of symmetry independent centers:    2
  Number of basis sets to read;    2
  Basis set file used for this atomic type with Z =   7 :
     "/home/lab333/dalton/build_2018_atlas/basis/6-311+G*"

  Info about the basis set file: your basis has no documentation.
  Basis set: 6-311+G*                                                                        


                      SYMADD: Requested addition of symmetry
                      --------------------------------------

 Symmetry test threshold:  5.00E-06

@   The molecule is centered at center of mass and rotated
@   so principal axes of inertia are along coordinate axes.

 Symmetry class found: D(oo,h)        

 Symmetry Independent Centres             
 ----------------------------
       7 :      0.00000000     0.00000000     1.03533929  Isotope  1

 The following symmetry elements were found:   X  Y  Z  


                         SYMGRP: Point group information
                         -------------------------------

@    Full point group is: D(oo,h)        
@    Represented as:      D2h

@  * The irrep name for each symmetry:    1: Ag     2: B3u    3: B2u    4: B1g    5: B1u    6: B2g    7: B3g    8: Au 


   * The point group was generated by:

      Reflection in the yz-plane
      Reflection in the xz-plane
      Reflection in the xy-plane

   * Group multiplication table

        |  E   C2z  C2y  C2x   i   Oxy  Oxz  Oyz
   -----+----------------------------------------
     E  |  E   C2z  C2y  C2x   i   Oxy  Oxz  Oyz
    C2z | C2z   E   C2x  C2y  Oxy   i   Oyz  Oxz
    C2y | C2y  C2x   E   C2z  Oxz  Oyz   i   Oxy
    C2x | C2x  C2y  C2z   E   Oyz  Oxz  Oxy   i 
     i  |  i   Oxy  Oxz  Oyz   E   C2z  C2y  C2x
    Oxy | Oxy   i   Oyz  Oxz  C2z   E   C2x  C2y
    Oxz | Oxz  Oyz   i   Oxy  C2y  C2x   E   C2z
    Oyz | Oyz  Oxz  Oxy   i   C2x  C2y  C2z   E 

   * Character table

        |  E   C2z  C2y  C2x   i   Oxy  Oxz  Oyz
   -----+----------------------------------------
    Ag  |   1    1    1    1    1    1    1    1
    B3u |   1   -1   -1    1   -1    1    1   -1
    B2u |   1   -1    1   -1   -1    1   -1    1
    B1g |   1    1   -1   -1    1    1   -1   -1
    B1u |   1    1   -1   -1   -1   -1    1    1
    B2g |   1   -1    1   -1    1   -1    1   -1
    B3g |   1   -1   -1    1    1   -1   -1    1
    Au  |   1    1    1    1   -1   -1   -1   -1

   * Direct product table

        | Ag   B3u  B2u  B1g  B1u  B2g  B3g  Au 
   -----+----------------------------------------
    Ag  | Ag   B3u  B2u  B1g  B1u  B2g  B3g  Au 
    B3u | B3u  Ag   B1g  B2u  B2g  B1u  Au   B3g
    B2u | B2u  B1g  Ag   B3u  B3g  Au   B1u  B2g
    B1g | B1g  B2u  B3u  Ag   Au   B3g  B2g  B1u
    B1u | B1u  B2g  B3g  Au   Ag   B3u  B2u  B1g
    B2g | B2g  B1u  Au   B3g  B3u  Ag   B1g  B2u
    B3g | B3g  Au   B1u  B2g  B2u  B1g  Ag   B3u
    Au  | Au   B3g  B2g  B1u  B1g  B2u  B3u  Ag 


                                 Isotopic Masses
                                 ---------------

                           N1  _1     14.003074
                           N1  _2     14.003074

                       Total mass:    28.006148 amu
                       Natural abundance:  99.261 %

 Center-of-mass coordinates (a.u.):    0.000000    0.000000    0.000000


  Atoms and basis sets
  --------------------

  Number of atom types :    1
  Total number of atoms:    2

  Basis set used is "6-311+G*" from the basis set library.

  label    atoms   charge   prim   cont     basis
  ----------------------------------------------------------------------
  N1          2    7.0000    35    22      [12s6p1d|5s4p1d]                                   
  ----------------------------------------------------------------------
  total:      2   14.0000    70    44
  ----------------------------------------------------------------------
  Spherical harmonic basis used.

  Threshold for neglecting AO integrals:  1.00D-12


  Cartesian Coordinates (a.u.)
  ----------------------------

  Total number of coordinates:    6
  N1  / 1 :     1  x   0.0000000000    2  y   0.0000000000    3  z   1.0353392882
  N1  / 2 :     4  x   0.0000000000    5  y   0.0000000000    6  z  -1.0353392882


  Symmetry Coordinates
  --------------------

  Number of coordinates in each symmetry:     1    1    1    0    1    1    1    0

  Symmetry  Ag  ( 1)

    1   N1    z    [  3  -    6 ]/2

  Symmetry  B3u ( 2)

    2   N1    x    [  1  +    4 ]/2

  Symmetry  B2u ( 3)

    3   N1    y    [  2  +    5 ]/2

  Symmetry  B1u ( 5)

    4   N1    z    [  3  +    6 ]/2

  Symmetry  B2g ( 6)

    5   N1    x    [  1  -    4 ]/2

  Symmetry  B3g ( 7)

    6   N1    y    [  2  -    5 ]/2


   Interatomic separations (in Angstrom):
   --------------------------------------

            N1  _1      N1  _2
            ------      ------
 N1  _1:    0.000000
 N1  _2:    1.095756    0.000000


  Max    interatomic separation is    1.0958 Angstrom (    2.0707 Bohr)
  between atoms    2 and    1, "N1  _2" and "N1  _1".

  Min YX interatomic separation is    1.0958 Angstrom (    2.0707 Bohr)


  Bond distances (Angstrom):
  --------------------------

                  atom 1     atom 2       distance
                  ------     ------       --------
  bond distance:  N1  _2     N1  _1       1.095756




 Principal moments of inertia (u*A**2) and principal axes
 --------------------------------------------------------

   IA       0.000000          0.000000    0.000000    1.000000
   IB       8.406613          0.000000    1.000000    0.000000
   IC       8.406613          1.000000    0.000000    0.000000


 Rotational constants
 --------------------

@    The molecule is linear.

               B =        60116.84 MHz     (    2.005282 cm-1)


@  Nuclear repulsion energy :   23.663740262957 Hartree


  Symmetry Orbitals
  -----------------

  Number of orbitals in each symmetry:          11    5    5    1   11    5    5    1


  Symmetry  Ag ( 1)

    1     N1       1s         1 +    2
    2     N1       1s         3 +    4
    3     N1       1s         5 +    6
    4     N1       1s         7 +    8
    5     N1       1s         9 +   10
    6     N1       2pz       15 -   16
    7     N1       2pz       21 -   22
    8     N1       2pz       27 -   28
    9     N1       2pz       33 -   34
   10     N1       3d0       39 +   40
   11     N1       3d2+      43 +   44


  Symmetry  B3u( 2)

   12     N1       2px       11 +   12
   13     N1       2px       17 +   18
   14     N1       2px       23 +   24
   15     N1       2px       29 +   30
   16     N1       3d1+      41 -   42


  Symmetry  B2u( 3)

   17     N1       2py       13 +   14
   18     N1       2py       19 +   20
   19     N1       2py       25 +   26
   20     N1       2py       31 +   32
   21     N1       3d1-      37 -   38


  Symmetry  B1g( 4)

   22     N1       3d2-      35 +   36


  Symmetry  B1u( 5)

   23     N1       1s         1 -    2
   24     N1       1s         3 -    4
   25     N1       1s         5 -    6
   26     N1       1s         7 -    8
   27     N1       1s         9 -   10
   28     N1       2pz       15 +   16
   29     N1       2pz       21 +   22
   30     N1       2pz       27 +   28
   31     N1       2pz       33 +   34
   32     N1       3d0       39 -   40
   33     N1       3d2+      43 -   44


  Symmetry  B2g( 6)

   34     N1       2px       11 -   12
   35     N1       2px       17 -   18
   36     N1       2px       23 -   24
   37     N1       2px       29 -   30
   38     N1       3d1+      41 +   42


  Symmetry  B3g( 7)

   39     N1       2py       13 -   14
   40     N1       2py       19 -   20
   41     N1       2py       25 -   26
   42     N1       2py       31 -   32
   43     N1       3d1-      37 +   38


  Symmetry  Au ( 8)

   44     N1       3d2-      35 -   36

  Symmetries of electric field:  B3u(2)  B2u(3)  B1u(5)

  Symmetries of magnetic field:  B3g(7)  B2g(6)  B1g(4)


                     .---------------------------------------.
                     | Starting in Integral Section (HERMIT) |
                     `---------------------------------------'



 ***************************************************************************************
 ****************** Output from **INTEGRALS input processing (HERMIT) ******************
 ***************************************************************************************


 - Using defaults, no **INTEGRALS input found

 Default print level:        1

 Calculation of one-electron Hamiltonian integrals.

 Center of mass  (bohr):      0.000000000000      0.000000000000      0.000000000000
 Operator center (bohr):      0.000000000000      0.000000000000      0.000000000000
 Gauge origin    (bohr):      0.000000000000      0.000000000000      0.000000000000
 Dipole origin   (bohr):      0.000000000000      0.000000000000      0.000000000000


     ************************************************************************
     ************************** Output from HERINT **************************
     ************************************************************************



                      Nuclear contribution to dipole moments
                      --------------------------------------

                    All dipole components are zero by symmetry


  Total CPU  time used in HERMIT:   0.02 seconds
  Total wall time used in HERMIT:   0.01 seconds


                        .----------------------------------.
                        | End of Integral Section (HERMIT) |
                        `----------------------------------'



                   .--------------------------------------------.
                   | Starting in Wave Function Section (SIRIUS) |
                   `--------------------------------------------'


 *** Output from Huckel module :

     Using EWMO model:          F
     Using EHT  model:          T
     Number of Huckel orbitals each symmetry:    3    1    1    0    3    1    1    0

 Huckel EHT eigenvalues for symmetry :  1
          -15.703544      -1.364632      -0.476381

 Huckel EHT eigenvalues for symmetry :  2
           -0.648932

 Huckel EHT eigenvalues for symmetry :  3
           -0.648932

 Huckel EHT eigenvalues for symmetry :  5
          -15.694935      -0.814082      -0.224025

 Huckel EHT eigenvalues for symmetry :  6
           -0.368468

 Huckel EHT eigenvalues for symmetry :  7
           -0.368468

 **********************************************************************
 *SIRIUS* a direct, restricted step, second order MCSCF program       *
 **********************************************************************

 
     Date and time (Linux)  : Wed Feb 19 12:05:28 2020
     Host name              : Lab2-333-NPs                            

 Title lines from ".mol" input file:
      N2                                                                     
      Generated by the Dalton Input File Plugin for Avogadro                 

 Print level on unit LUPRI =   2 is   0
 Print level on unit LUW4  =   2 is   5

@    Restricted, closed shell Kohn-Sham DFT calculation.

@    Time-dependent Kohn-Sham DFT calculation (TD-DFT).
 Fock matrices are calculated directly without use of integrals on disk.

 Initial molecular orbitals are obtained according to
 ".MOSTART EHT   " input option

     Wave function specification
     ============================
@    Wave function type        --- KS-DFT ---
@    Number of closed shell electrons          14
@    Number of electrons in active shells       0
@    Total charge of the molecule               0

@    Spin multiplicity and 2 M_S                1         0
@    Total number of symmetries                 8 (point group: D2h)
@    Reference state symmetry                   1 (irrep name : Ag )
 
     This is a DFT calculation of type: Camb3lyp
 CAM-B3LYP w/ alpha=0.190 beta=0.460 mu=0.330 VwnWeight=0.190 LypWeight=0.810

     Orbital specifications
     ======================
@    Abelian symmetry species          All |    1    2    3    4    5    6    7    8
@                                          |  Ag   B3u  B2u  B1g  B1u  B2g  B3g  Au 
                                       --- |  ---  ---  ---  ---  ---  ---  ---  ---
@    Total number of orbitals           44 |   11    5    5    1   11    5    5    1
@    Number of basis functions          44 |   11    5    5    1   11    5    5    1

      ** Automatic occupation of RKS orbitals **

      -- Initial occupation of symmetries is determined from extended Huckel guess.           
      -- Initial occupation of symmetries is :
@    Occupied SCF orbitals               7 |    3    1    1    0    2    0    0    0

     Maximum number of Fock   iterations      0
     Maximum number of DIIS   iterations     60
     Maximum number of QC-SCF iterations     60
     Threshold for SCF convergence     1.00D-05
 
     This is a DFT calculation of type: Camb3lyp
 CAM-B3LYP w/ alpha=0.190 beta=0.460 mu=0.330 VwnWeight=0.190 LypWeight=0.810


 ***********************************************
 ***** DIIS acceleration of SCF iterations *****
 ***********************************************

 C1-DIIS algorithm; max error vectors =    8

 Automatic occupation of symmetries with  14 electrons.

 Iter     Total energy    Error norm  Delta(E)    SCF occupation
 -----------------------------------------------------------------------------
   1  Screening settings (-IFTHRS, JTDIIS, DIFDEN, times)   -6    1    F  4.69D-02  4.50D-02
      K-S energy, electrons, error :     -9.838735035716  14.0000003226    3.23D-07
@  1  -109.172453876       3.00D+00  -1.09D+02     3   1   1   0   2   0   0   0
      Virial theorem: -V/T =      2.014935
@    MULPOP   N1  _1  0.00; N1  _2  0.00; 
   1  Level shift: doubly occupied orbital energies shifted by -2.00D-01
 -----------------------------------------------------------------------------
   2  Screening settings (-IFTHRS, JTDIIS, DIFDEN, times)   -7    2    F  4.69D-02  4.60D-02
      K-S energy, electrons, error :    -10.182360534584  14.0000003394    3.39D-07
@  2  -109.485317601       8.20D-01  -3.13D-01     3   1   1   0   2   0   0   0
      Virial theorem: -V/T =      1.991796
@    MULPOP   N1  _1  0.00; N1  _2  0.00; 
   2  Level shift: doubly occupied orbital energies shifted by -1.00D-01
 -----------------------------------------------------------------------------
   3  Screening settings (-IFTHRS, JTDIIS, DIFDEN, times)   -7    3    F  4.69D-02  4.60D-02
      K-S energy, electrons, error :    -10.043555737090  14.0000003402    3.40D-07
@  3  -109.514420746       1.24D-01  -2.91D-02     3   1   1   0   2   0   0   0
      Virial theorem: -V/T =      2.004614
@    MULPOP   N1  _1 -0.00; N1  _2 -0.00; 
   3  Level shift: doubly occupied orbital energies shifted by -2.50D-02
 -----------------------------------------------------------------------------
   4  Screening settings (-IFTHRS, JTDIIS, DIFDEN, times)   -8    4    F  4.69D-02  4.50D-02
      K-S energy, electrons, error :    -10.063092268782  14.0000003407    3.41D-07
@  4  -109.515371380       2.33D-02  -9.51D-04     3   1   1   0   2   0   0   0
      Virial theorem: -V/T =      2.002544
@    MULPOP   N1  _1 -0.00; N1  _2 -0.00; 
 -----------------------------------------------------------------------------
   5  Screening settings (-IFTHRS, JTDIIS, DIFDEN, times)   -9    5    F  3.12D-02  4.60D-02
      K-S energy, electrons, error :    -10.059048077825  14.0000003408    3.41D-07
@  5  -109.515425851       3.46D-03  -5.45D-05     3   1   1   0   2   0   0   0
      Virial theorem: -V/T =      2.002920
@    MULPOP   N1  _1 -0.00; N1  _2 -0.00; 
 -----------------------------------------------------------------------------
   6  Screening settings (-IFTHRS, JTDIIS, DIFDEN, times)   -9    6    F  4.69D-02  4.90D-02
      K-S energy, electrons, error :    -10.059292820163  14.0000003408    3.41D-07
@  6  -109.515427150       2.86D-04  -1.30D-06     3   1   1   0   2   0   0   0
      Virial theorem: -V/T =      2.002893
@    MULPOP   N1  _1 -0.00; N1  _2 -0.00; 
 -----------------------------------------------------------------------------
   7  Screening settings (-IFTHRS, JTDIIS, DIFDEN, times)  -10    7    F  4.69D-02  5.20D-02
      K-S energy, electrons, error :    -10.059234209222  14.0000003408    3.41D-07
@  7  -109.515427157       3.74D-05  -7.40D-09     3   1   1   0   2   0   0   0
      Virial theorem: -V/T =      2.002898
@    MULPOP   N1  _1 -0.00; N1  _2 -0.00; 
 -----------------------------------------------------------------------------
   8  Screening settings (-IFTHRS, JTDIIS, DIFDEN, times)  -10    8    F  4.69D-02  4.60D-02
      K-S energy, electrons, error :    -10.059239360965  14.0000003408    3.41D-07
@  8  -109.515427157       3.48D-06  -9.82D-11     3   1   1   0   2   0   0   0

@ *** DIIS converged in   8 iterations !
@     Converged SCF energy, gradient:   -109.515427157487    3.48D-06
    - total time used in SIRFCK :              0.00 seconds


 *** SCF orbital energy analysis ***

 Only the 20 lowest virtual orbital energies printed in each symmetry.

 Number of electrons :   14
 Orbital occupations :    3    1    1    0    2    0    0    0

 Sym       Kohn-Sham orbital energies

1 Ag    -14.49934585    -1.22061400    -0.51147215     0.09692505     0.17194666
          0.72250133     0.96048532     1.73480477     2.56693815     4.25951655
         35.08423028

2 B3u    -0.54394974     0.11985549     0.76220469     1.76990746     3.72876671


3 B2u    -0.54394974     0.11985549     0.76220469     1.76990746     3.72876671


4 B1g     1.73480478

5 B1u   -14.49758661    -0.63193191     0.10706447     0.28723080     0.56509515
          0.97417794     1.28093212     2.23190502     3.21540066     4.57665940
         36.34425890

6 B2g     0.01969386     0.20234057     0.86971332     2.92969925     4.01204084


7 B3g     0.01969386     0.20234057     0.86971332     2.92969925     4.01204084


8 Au      2.23190503

    E(LUMO) :     0.01969386 au (symmetry 6)
  - E(HOMO) :    -0.51147215 au (symmetry 1)
  ------------------------------------------
    gap     :     0.53116601 au

 --- Writing SIRIFC interface file

 CPU and wall time for SCF :       1.562       1.553


                       .-----------------------------------.
                       | --- Final results from SIRIUS --- |
                       `-----------------------------------'


@    Spin multiplicity:           1
@    Spatial symmetry:            1 ( irrep  Ag  in D2h )
@    Total charge of molecule:    0

@    Final DFT energy:           -109.515427157487                 
@    Nuclear repulsion:            23.663740262957
@    Electronic energy:          -133.179167420445

@    Final gradient norm:           0.000003475309

 
     Date and time (Linux)  : Wed Feb 19 12:05:29 2020
     Host name              : Lab2-333-NPs                            

File label for MO orbitals:  19Feb20   FOCKDIIS

 (Only coefficients > 0.0100 are printed.)

 Molecular orbitals for symmetry species 1  (Ag )
 ------------------------------------------------

    Orbital         1        2        3        4        5        6        7
   1 N1  :1s     0.3942  -0.0905  -0.0299  -0.0254  -0.0123  -0.0026  -0.0830
   2 N1  :1s     0.3294  -0.1406  -0.0480  -0.0396  -0.0183  -0.0102  -0.1673
   3 N1  :1s     0.0096   0.3847   0.1336   0.0980   0.0289   0.2574   1.3143
   4 N1  :1s    -0.0044   0.1667   0.2621   0.6177   0.4393   0.0052  -1.6753
   5 N1  :1s     0.0013  -0.0057   0.0544  -0.9078  -0.0768  -0.1505   0.6252
   6 N1  :2pz   -0.0014  -0.1137   0.2186   0.0624  -0.0209  -0.1127   0.0621
   7 N1  :2pz    0.0003  -0.1437   0.2978   0.0567  -0.0072  -0.4484   0.1661
   8 N1  :2pz    0.0002  -0.0320   0.1758   0.2366  -0.0610   1.3253  -0.1709
   9 N1  :2pz   -0.0008   0.0085   0.0027  -0.4515   1.5511  -1.0038  -0.2412
  10 N1  :3d0   -0.0001   0.0248  -0.0245  -0.0011   0.0246   0.0400   0.0575

    Orbital         8        9       10       11
   1 N1  :1s    -0.0000   0.0198  -0.0027  -1.5159
   2 N1  :1s    -0.0000   0.0568  -0.0235   1.5921
   3 N1  :1s     0.0000  -0.6677   0.3037  -0.2519
   4 N1  :1s     0.0000   0.3690  -0.2928   0.1980
   5 N1  :1s    -0.0000  -0.0180   0.1199  -0.0588
   6 N1  :2pz   -0.0000  -0.1339  -0.9659   0.0037
   7 N1  :2pz   -0.0000   0.5099   0.9255  -0.0092
   8 N1  :2pz   -0.0000  -0.7436  -0.4733  -0.0229
   9 N1  :2pz   -0.0000   0.3808   0.2133   0.0449
  10 N1  :3d0   -0.0000   0.7616  -0.1911   0.0283
  11 N1  :3d2+   0.6619   0.0000   0.0000  -0.0000

 Molecular orbitals for symmetry species 2  (B3u)
 ------------------------------------------------

    Orbital         1        2        3        4        5
   1 N1  :2px    0.2076  -0.0719   0.1620   0.0922  -0.9142
   2 N1  :2px    0.3096  -0.0676   0.5967   0.1727   1.0502
   3 N1  :2px    0.2116  -0.2547  -0.9866  -0.0602  -0.5268
   4 N1  :2px    0.0091   0.6443   0.4343   0.0021   0.1669
   5 N1  :3d1+  -0.0393   0.0173  -0.0554   0.6046   0.0863

 Molecular orbitals for symmetry species 3  (B2u)
 ------------------------------------------------

    Orbital         1        2        3        4        5
   1 N1  :2py    0.2076  -0.0719   0.1620   0.0922  -0.9142
   2 N1  :2py    0.3096  -0.0676   0.5967   0.1727   1.0502
   3 N1  :2py    0.2116  -0.2547  -0.9866  -0.0602  -0.5268
   4 N1  :2py    0.0091   0.6443   0.4343   0.0021   0.1669
   5 N1  :3d1-  -0.0393   0.0173  -0.0554   0.6046   0.0863

 Molecular orbitals for symmetry species 4  (B1g)
 ------------------------------------------------

    Orbital         1
   1 N1  :3d2-   0.6619

 Molecular orbitals for symmetry species 5  (B1u)
 ------------------------------------------------

    Orbital         1        2        3        4        5        6        7
   1 N1  :1s     0.3944  -0.0841   0.0219   0.0182   0.0500  -0.0003   0.0904
   2 N1  :1s     0.3288  -0.1349   0.0366   0.0297   0.0822   0.0016   0.1735
   3 N1  :1s     0.0130   0.3980  -0.1367  -0.0502  -0.1988  -0.1657  -1.4695
   4 N1  :1s    -0.0055   0.4884   0.1926  -0.7649  -4.9461  -0.0680   7.7100
   5 N1  :1s     0.0155  -0.1455 -13.1695  39.8696   3.6915  -9.3082 -16.4556
   6 N1  :2pz   -0.0004   0.0981  -0.0200  -0.0410   0.1155  -0.2791   0.1540
   7 N1  :2pz   -0.0063   0.1318  -0.0114   0.0366   0.1473  -0.8474  -0.1372
   8 N1  :2pz    0.0018   0.0434  -0.3117  -0.3426   3.2332   1.2855  -3.0506
   9 N1  :2pz   -0.0040   0.0549   4.2714 -10.5310  -1.4165   2.1122   4.3664
  10 N1  :3d0    0.0034  -0.0093   0.0154  -0.0268   0.0333  -0.0512   0.2272

    Orbital         8        9       10       11
   1 N1  :1s     0.0000  -0.0359   0.0790   1.5272
   2 N1  :1s     0.0000  -0.0816   0.1730  -1.6629
   3 N1  :1s     0.0000   0.4875  -1.2812   0.5229
   4 N1  :1s     0.0000   3.3630  -2.8271  -0.0158
   5 N1  :1s    -0.0000  -2.3772   7.6668   0.1450
   6 N1  :2pz   -0.0000  -0.5124  -0.8197   0.0810
   7 N1  :2pz   -0.0000  -0.4167   3.1844  -0.5488
   8 N1  :2pz   -0.0000  -1.8084   0.4035   0.0497
   9 N1  :2pz   -0.0000   0.7596  -1.8850  -0.0459
  10 N1  :3d0    0.0000   1.0742  -1.3642   0.2758
  11 N1  :3d2+   0.7630  -0.0000  -0.0000  -0.0000

 Molecular orbitals for symmetry species 6  (B2g)
 ------------------------------------------------

    Orbital         1        2        3        4        5
   1 N1  :2px    0.2117  -0.1232  -0.1931   0.2117  -0.9075
   2 N1  :2px    0.3226  -0.1424  -0.6286  -0.0379   1.2935
   3 N1  :2px    0.4342  -0.5402   1.7147   0.5800  -0.7292
   4 N1  :2px    0.5361   2.2171  -1.2113  -0.2945   0.4004
   5 N1  :3d1+   0.0178   0.0008  -0.0014  -0.9977  -0.3753

 Molecular orbitals for symmetry species 7  (B3g)
 ------------------------------------------------

    Orbital         1        2        3        4        5
   1 N1  :2py    0.2117  -0.1232  -0.1931   0.2117  -0.9075
   2 N1  :2py    0.3226  -0.1424  -0.6286  -0.0379   1.2935
   3 N1  :2py    0.4342  -0.5402   1.7147   0.5800  -0.7292
   4 N1  :2py    0.5361   2.2171  -1.2113  -0.2945   0.4004
   5 N1  :3d1-   0.0178   0.0008  -0.0014  -0.9977  -0.3753

 Molecular orbitals for symmetry species 8  (Au )
 ------------------------------------------------

    Orbital         1
   1 N1  :3d2-   0.7630

  Total CPU  time used in SIRIUS :   1.56 seconds
  Total wall time used in SIRIUS :   1.56 seconds

 
     Date and time (Linux)  : Wed Feb 19 12:05:29 2020
     Host name              : Lab2-333-NPs                            


                     .---------------------------------------.
                     | End of Wave Function Section (SIRIUS) |
                     `---------------------------------------'



                 .------------------------------------------------.
                 | Starting in Dynamic Property Section (RESPONS) |
                 `------------------------------------------------'


 ------------------------------------------------------------------------------
  RESPONSE  -  an MCSCF, MC-srDFT, DFT, and SOPPA response property program
 ------------------------------------------------------------------------------


 -------- OUTPUT FROM RESPONSE INPUT PROCESSING --------




 Cubic Response single residue calculation
 -----------------------------------------

 Third moments calculated : TOMOM=T
 Three-photon transition process computed  : THREEPHOTON =T


 24 B- and C-frequencies will later be set to 1/3 of the excitation energies

 Print level                                    : IPRTMO =    5
 Maximum number of exc.en. iterations           : MAXITP =   60
 Threshold for exc.en. convergence              : THCPP  = 1.000D-03
 Maximum number of lin.resp. iterations         : MAXITL =   60
 Threshold for lin.resp. convergence            : THCLR  = 1.000D-03
 Maximum iterations in optimal orbital algorithm: MAXITO =    5

 General print level in RESPONS is IPRRSP =         5

    3 D OPERATORS OF SYMMETRY    1 NOT INCLUDED

    3 D OPERATORS OF SYMMETRY    4 NOT INCLUDED

    3 D OPERATORS OF SYMMETRY    6 NOT INCLUDED

    3 D OPERATORS OF SYMMETRY    7 NOT INCLUDED

    1 A OPERATORS OF SYMMETRY NO:    2 AND LABELS:

          XDIPLEN 

    1 A OPERATORS OF SYMMETRY NO:    3 AND LABELS:

          YDIPLEN 

    1 A OPERATORS OF SYMMETRY NO:    5 AND LABELS:

          ZDIPLEN 

    1 B OPERATORS OF SYMMETRY NO:    2 AND LABELS:

          XDIPLEN 

    1 B OPERATORS OF SYMMETRY NO:    3 AND LABELS:

          YDIPLEN 

    1 B OPERATORS OF SYMMETRY NO:    5 AND LABELS:

          ZDIPLEN 

    1 C OPERATORS OF SYMMETRY NO:    2 AND LABELS:

          XDIPLEN 

    1 C OPERATORS OF SYMMETRY NO:    3 AND LABELS:

          YDIPLEN 

    1 C OPERATORS OF SYMMETRY NO:    5 AND LABELS:

          ZDIPLEN 


   SCF energy         :     -109.515427157487281
 -- inactive part     :     -133.179167420444685
 -- nuclear repulsion :       23.663740262957404


                    *****************************************
                    *** DFT response calculation (TD-DFT) ***
                    *****************************************



 Perturbation symmetry.     KSYMOP:       1
 Perturbation spin symmetry.TRPLET:       F
 Orbital variables.         KZWOPT:      50
 Configuration variables.   KZCONF:       0
 Total number of variables. KZVAR :      50


 Perturbation symmetry.     KSYMOP:       2
 Perturbation spin symmetry.TRPLET:       F
 Orbital variables.         KZWOPT:      31
 Configuration variables.   KZCONF:       0
 Total number of variables. KZVAR :      31


 ----- Solving eigenvalue equations for cubic response -----
       Symmetry 2  ( B3u)
       Number of excitations:    3
  IN CRPPVE: MAXRM               600
  IN CRPPVE: LWRK ,LWRK1  1019998894  1018917094
  IN CRPPVE: THCPP         1.0000000000000000E-003



 --- EXCITATION ENERGIES AND TRANSITION MOMENT CALCULATION (MCTDHF) ---

 Operator symmetry = 2  ( B3u); triplet =   F

           0  START configuration VECTORS USING LOWEST DIAGONAL HESSIAN ELEMENTS
           3  START orbital VECTORS

 ** RSPCTL MICROITERATION NUMBER    1

      Root  Residual tot.,    conf., and orb.    Bnorm      Eigenvalue
      ----------------------------------------------------------------
         1    4.67056D-02  0.00D+00  4.67D-02  7.07D-01    4.98118D-01
         2    5.43526D-02  0.00D+00  5.44D-02  7.07D-01    5.03362D-01
         3    3.33509D-01  0.00D+00  3.34D-01  7.12D-01    5.34127D-01

 ** RSPCTL MICROITERATION NUMBER    2

      Root  Residual tot.,    conf., and orb.    Bnorm      Eigenvalue
      ----------------------------------------------------------------
         1    1.50301D-02  0.00D+00  1.50D-02  7.07D-01    4.95870D-01
         2    1.86114D-02  0.00D+00  1.86D-02  7.08D-01    5.00181D-01
         3    3.43061D-02  0.00D+00  3.43D-02  7.12D-01    5.14582D-01

 ** RSPCTL MICROITERATION NUMBER    3

      Root  Residual tot.,    conf., and orb.    Bnorm      Eigenvalue
      ----------------------------------------------------------------
         1    3.34439D-03  0.00D+00  3.34D-03  7.07D-01    4.95779D-01
         2    3.14071D-03  0.00D+00  3.14D-03  7.07D-01    4.99947D-01
         3    8.94607D-03  0.00D+00  8.95D-03  7.12D-01    5.13970D-01

 ** RSPCTL MICROITERATION NUMBER    4

      Root  Residual tot.,    conf., and orb.    Bnorm      Eigenvalue
      ----------------------------------------------------------------
         1    2.38733D-04  0.00D+00  2.39D-04  7.07D-01    4.95778D-01
         2    1.83588D-04  0.00D+00  1.84D-04  7.07D-01    4.99946D-01
         3    6.49138D-04  0.00D+00  6.49D-04  7.12D-01    5.13963D-01

 *** THE REQUESTED    3 SOLUTION VECTORS CONVERGED

 Convergence of RSP solution vectors, threshold = 1.00D-03
 ---------------------------------------------------------------
 (dimension of paired reduced space:   24)
 RSP solution vector no.    1; norm of residual   3.38D-04
 RSP solution vector no.    2; norm of residual   2.59D-04
 RSP solution vector no.    3; norm of residual   9.12D-04

 *** RSPCTL MICROITERATIONS CONVERGED

     Response orbital operator symmetry = 2
     (only scaled elements abs greater than   10.00 % of max abs value)

      Index(r,s)      r      s        (r s) operator      (s r) operator      (r s) scaled        (s r) scaled
      ----------    -----  -----      --------------      --------------      --------------      --------------
           9         3(1)  13(2)       -0.6419446591       -0.0006907319       -0.9078468432       -0.0009768424
          13        12(2)   4(1)        0.2787695316        0.0006151510        0.3942396524        0.0008699549
          27        24(5)  34(6)        0.0662879599        0.0013680250        0.0937453319        0.0019346795

       28 elements with absolute value ≤ 9.08D-02 not printed.

 The numbers in parenthesis give the orbital symmetry.

     Configuration operator symmetry = 2
     >> NO ELEMENTS <<

     Response orbital operator symmetry = 2
     (only scaled elements abs greater than   10.00 % of max abs value)

      Index(r,s)      r      s        (r s) operator      (s r) operator      (r s) scaled        (s r) scaled
      ----------    -----  -----      --------------      --------------      --------------      --------------
           9         3(1)  13(2)       -0.2620705546        0.0001938517       -0.3706237326        0.0002741477
          13        12(2)   4(1)       -0.6293680121       -0.0033924475       -0.8900607785       -0.0047976453
          14        12(2)   5(1)       -0.0943729063       -0.0028132496       -0.1334634440       -0.0039785357
          27        24(5)  34(6)        0.1576204950        0.0139235018        0.2229090417        0.0196908051

       27 elements with absolute value ≤ 8.90D-02 not printed.

 The numbers in parenthesis give the orbital symmetry.

     Configuration operator symmetry = 2
     >> NO ELEMENTS <<

     Response orbital operator symmetry = 2
     (only scaled elements abs greater than   10.00 % of max abs value)

      Index(r,s)      r      s        (r s) operator      (s r) operator      (r s) scaled        (s r) scaled
      ----------    -----  -----      --------------      --------------      --------------      --------------
           9         3(1)  13(2)        0.1254527708        0.0020262239        0.1774170100        0.0028655134
          13        12(2)   4(1)        0.1025005161       -0.0023899997        0.1449576201       -0.0033799700
          14        12(2)   5(1)        0.1088015052       -0.0070761945        0.1538685642       -0.0100072502
          27        24(5)  34(6)        0.6796348772        0.0436281505        0.9611488607        0.0616995221

       27 elements with absolute value ≤ 9.61D-02 not printed.

 The numbers in parenthesis give the orbital symmetry.

     Configuration operator symmetry = 2
     >> NO ELEMENTS <<


 Perturbation symmetry.     KSYMOP:       3
 Perturbation spin symmetry.TRPLET:       F
 Orbital variables.         KZWOPT:      31
 Configuration variables.   KZCONF:       0
 Total number of variables. KZVAR :      31


 ----- Solving eigenvalue equations for cubic response -----
       Symmetry 3  ( B2u)
       Number of excitations:    3
  IN CRPPVE: MAXRM               600
  IN CRPPVE: LWRK ,LWRK1  1019998894  1018917094
  IN CRPPVE: THCPP         1.0000000000000000E-003



 --- EXCITATION ENERGIES AND TRANSITION MOMENT CALCULATION (MCTDHF) ---

 Operator symmetry = 3  ( B2u); triplet =   F

           0  START configuration VECTORS USING LOWEST DIAGONAL HESSIAN ELEMENTS
           3  START orbital VECTORS

 ** RSPCTL MICROITERATION NUMBER    1

      Root  Residual tot.,    conf., and orb.    Bnorm      Eigenvalue
      ----------------------------------------------------------------
         1    4.67056D-02  0.00D+00  4.67D-02  7.07D-01    4.98118D-01
         2    5.43526D-02  0.00D+00  5.44D-02  7.07D-01    5.03362D-01
         3    3.33509D-01  0.00D+00  3.34D-01  7.12D-01    5.34127D-01

 ** RSPCTL MICROITERATION NUMBER    2

      Root  Residual tot.,    conf., and orb.    Bnorm      Eigenvalue
      ----------------------------------------------------------------
         1    1.50301D-02  0.00D+00  1.50D-02  7.07D-01    4.95870D-01
         2    1.86114D-02  0.00D+00  1.86D-02  7.08D-01    5.00181D-01
         3    3.43061D-02  0.00D+00  3.43D-02  7.12D-01    5.14582D-01

 ** RSPCTL MICROITERATION NUMBER    3

      Root  Residual tot.,    conf., and orb.    Bnorm      Eigenvalue
      ----------------------------------------------------------------
         1    3.34439D-03  0.00D+00  3.34D-03  7.07D-01    4.95779D-01
         2    3.14071D-03  0.00D+00  3.14D-03  7.07D-01    4.99947D-01
         3    8.94607D-03  0.00D+00  8.95D-03  7.12D-01    5.13970D-01

 ** RSPCTL MICROITERATION NUMBER    4

      Root  Residual tot.,    conf., and orb.    Bnorm      Eigenvalue
      ----------------------------------------------------------------
         1    2.38733D-04  0.00D+00  2.39D-04  7.07D-01    4.95778D-01
         2    1.83588D-04  0.00D+00  1.84D-04  7.07D-01    4.99946D-01
         3    6.49138D-04  0.00D+00  6.49D-04  7.12D-01    5.13963D-01

 *** THE REQUESTED    3 SOLUTION VECTORS CONVERGED

 Convergence of RSP solution vectors, threshold = 1.00D-03
 ---------------------------------------------------------------
 (dimension of paired reduced space:   24)
 RSP solution vector no.    1; norm of residual   3.38D-04
 RSP solution vector no.    2; norm of residual   2.59D-04
 RSP solution vector no.    3; norm of residual   9.12D-04

 *** RSPCTL MICROITERATIONS CONVERGED

     Response orbital operator symmetry = 3
     (only scaled elements abs greater than   10.00 % of max abs value)

      Index(r,s)      r      s        (r s) operator      (s r) operator      (r s) scaled        (s r) scaled
      ----------    -----  -----      --------------      --------------      --------------      --------------
           9         3(1)  18(3)       -0.6419446591       -0.0006907319       -0.9078468432       -0.0009768424
          14        17(3)   4(1)        0.2787695316        0.0006151510        0.3942396524        0.0008699549
          27        24(5)  39(7)        0.0662879599        0.0013680250        0.0937453319        0.0019346795

       28 elements with absolute value ≤ 9.08D-02 not printed.

 The numbers in parenthesis give the orbital symmetry.

     Configuration operator symmetry = 3
     >> NO ELEMENTS <<

     Response orbital operator symmetry = 3
     (only scaled elements abs greater than   10.00 % of max abs value)

      Index(r,s)      r      s        (r s) operator      (s r) operator      (r s) scaled        (s r) scaled
      ----------    -----  -----      --------------      --------------      --------------      --------------
           9         3(1)  18(3)       -0.2620705546        0.0001938517       -0.3706237326        0.0002741477
          14        17(3)   4(1)       -0.6293680121       -0.0033924475       -0.8900607785       -0.0047976453
          15        17(3)   5(1)       -0.0943729063       -0.0028132496       -0.1334634440       -0.0039785357
          27        24(5)  39(7)        0.1576204950        0.0139235018        0.2229090417        0.0196908051

       27 elements with absolute value ≤ 8.90D-02 not printed.

 The numbers in parenthesis give the orbital symmetry.

     Configuration operator symmetry = 3
     >> NO ELEMENTS <<

     Response orbital operator symmetry = 3
     (only scaled elements abs greater than   10.00 % of max abs value)

      Index(r,s)      r      s        (r s) operator      (s r) operator      (r s) scaled        (s r) scaled
      ----------    -----  -----      --------------      --------------      --------------      --------------
           9         3(1)  18(3)        0.1254527708        0.0020262239        0.1774170100        0.0028655134
          14        17(3)   4(1)        0.1025005161       -0.0023899997        0.1449576201       -0.0033799700
          15        17(3)   5(1)        0.1088015052       -0.0070761945        0.1538685642       -0.0100072502
          27        24(5)  39(7)        0.6796348772        0.0436281505        0.9611488607        0.0616995221

       27 elements with absolute value ≤ 9.61D-02 not printed.

 The numbers in parenthesis give the orbital symmetry.

     Configuration operator symmetry = 3
     >> NO ELEMENTS <<


 Perturbation symmetry.     KSYMOP:       4
 Perturbation spin symmetry.TRPLET:       F
 Orbital variables.         KZWOPT:      13
 Configuration variables.   KZCONF:       0
 Total number of variables. KZVAR :      13


 Perturbation symmetry.     KSYMOP:       5
 Perturbation spin symmetry.TRPLET:       F
 Orbital variables.         KZWOPT:      53
 Configuration variables.   KZCONF:       0
 Total number of variables. KZVAR :      53


 ----- Solving eigenvalue equations for cubic response -----
       Symmetry 5  ( B1u)
       Number of excitations:    3
  IN CRPPVE: MAXRM               600
  IN CRPPVE: LWRK ,LWRK1  1019998894  1018917094
  IN CRPPVE: THCPP         1.0000000000000000E-003



 --- EXCITATION ENERGIES AND TRANSITION MOMENT CALCULATION (MCTDHF) ---

 Operator symmetry = 5  ( B1u); triplet =   F

           0  START configuration VECTORS USING LOWEST DIAGONAL HESSIAN ELEMENTS
           3  START orbital VECTORS

 ** RSPCTL MICROITERATION NUMBER    1

      Root  Residual tot.,    conf., and orb.    Bnorm      Eigenvalue
      ----------------------------------------------------------------
         1    6.60821D-02  0.00D+00  6.61D-02  7.07D-01    3.63408D-01
         2    5.61933D-02  0.00D+00  5.62D-02  7.07D-01    4.98743D-01
         3    6.96172D-01  0.00D+00  6.96D-01  7.65D-01    6.62110D-01

 ** RSPCTL MICROITERATION NUMBER    2

      Root  Residual tot.,    conf., and orb.    Bnorm      Eigenvalue
      ----------------------------------------------------------------
         1    1.27736D-02  0.00D+00  1.28D-02  7.07D-01    3.58471D-01
         2    1.76999D-02  0.00D+00  1.77D-02  7.09D-01    4.91182D-01
         3    7.45296D-02  0.00D+00  7.45D-02  7.22D-01    5.24736D-01

 ** RSPCTL MICROITERATION NUMBER    3

      Root  Residual tot.,    conf., and orb.    Bnorm      Eigenvalue
      ----------------------------------------------------------------
         1    3.65229D-04  0.00D+00  3.65D-04  7.07D-01    3.58441D-01
         2    1.09978D-02  0.00D+00  1.10D-02  7.09D-01    4.90725D-01
         3    3.13481D-02  0.00D+00  3.13D-02  7.22D-01    5.21941D-01

 ** RSPCTL MICROITERATION NUMBER    4

      Root  Residual tot.,    conf., and orb.    Bnorm      Eigenvalue
      ----------------------------------------------------------------
         1    3.65229D-04  0.00D+00  3.65D-04  7.07D-01    3.58441D-01
         2    2.54780D-03  0.00D+00  2.55D-03  7.09D-01    4.90695D-01
         3    5.61691D-03  0.00D+00  5.62D-03  7.22D-01    5.21739D-01

 ** RSPCTL MICROITERATION NUMBER    5

      Root  Residual tot.,    conf., and orb.    Bnorm      Eigenvalue
      ----------------------------------------------------------------
         1    3.65229D-04  0.00D+00  3.65D-04  7.07D-01    3.58441D-01
         2    2.74008D-04  0.00D+00  2.74D-04  7.09D-01    4.90694D-01
         3    1.18107D-03  0.00D+00  1.18D-03  7.22D-01    5.21735D-01

 ** RSPCTL MICROITERATION NUMBER    6

      Root  Residual tot.,    conf., and orb.    Bnorm      Eigenvalue
      ----------------------------------------------------------------
         1    3.65229D-04  0.00D+00  3.65D-04  7.07D-01    3.58441D-01
         2    1.38495D-04  0.00D+00  1.38D-04  7.09D-01    4.90694D-01
         3    2.55596D-04  0.00D+00  2.56D-04  7.22D-01    5.21735D-01

 *** THE REQUESTED    3 SOLUTION VECTORS CONVERGED

 Convergence of RSP solution vectors, threshold = 1.00D-03
 ---------------------------------------------------------------
 (dimension of paired reduced space:   28)
 RSP solution vector no.    1; norm of residual   5.16D-04
 RSP solution vector no.    2; norm of residual   1.95D-04
 RSP solution vector no.    3; norm of residual   3.54D-04

 *** RSPCTL MICROITERATIONS CONVERGED

     Response orbital operator symmetry = 5
     (only scaled elements abs greater than   10.00 % of max abs value)

      Index(r,s)      r      s        (r s) operator      (s r) operator      (r s) scaled        (s r) scaled
      ----------    -----  -----      --------------      --------------      --------------      --------------
          28        12(2)  34(6)       -0.4956982759        0.0072703869       -0.7010232246        0.0102818797
          29        12(2)  35(6)        0.0645839557       -0.0020784784        0.0913355060       -0.0029394124
          33        17(3)  39(7)        0.4956982759       -0.0072703869        0.7010232246       -0.0102818797
          34        17(3)  40(7)       -0.0645839557        0.0020784784       -0.0913355060        0.0029394124

       49 elements with absolute value ≤ 7.01D-02 not printed.

 The numbers in parenthesis give the orbital symmetry.

     Configuration operator symmetry = 5
     >> NO ELEMENTS <<

     Response orbital operator symmetry = 5
     (only scaled elements abs greater than   10.00 % of max abs value)

      Index(r,s)      r      s        (r s) operator      (s r) operator      (r s) scaled        (s r) scaled
      ----------    -----  -----      --------------      --------------      --------------      --------------
          19         3(1)  25(5)        0.6363876469        0.0015592409        0.8999880412        0.0022050997
          28        12(2)  34(6)        0.1741335580        0.0238800523        0.2462620393        0.0337714939
          33        17(3)  39(7)        0.1741335580        0.0238800523        0.2462620393        0.0337714939
          46        24(5)   4(1)       -0.1675213441        0.0044014366       -0.2369109569        0.0062245713

       49 elements with absolute value ≤ 9.00D-02 not printed.

 The numbers in parenthesis give the orbital symmetry.

     Configuration operator symmetry = 5
     >> NO ELEMENTS <<

     Response orbital operator symmetry = 5
     (only scaled elements abs greater than   10.00 % of max abs value)

      Index(r,s)      r      s        (r s) operator      (s r) operator      (r s) scaled        (s r) scaled
      ----------    -----  -----      --------------      --------------      --------------      --------------
          19         3(1)  25(5)        0.2886601453        0.0033369021        0.4082270924        0.0047190922
          20         3(1)  26(5)       -0.0500537676        0.0059133339       -0.0707867169        0.0083627170
          21         3(1)  27(5)        0.0771560191       -0.0152442411        0.1091150886       -0.0215586125
          22         3(1)  28(5)       -0.0482827866        0.0197893344       -0.0682821717        0.0279863451
          28        12(2)  34(6)       -0.4004257139       -0.0625847915       -0.5662874754       -0.0885082609
          29        12(2)  35(6)       -0.1384609366        0.0226977018       -0.1958133344        0.0320993977
          33        17(3)  39(7)       -0.4004257139       -0.0625847915       -0.5662874754       -0.0885082609
          34        17(3)  40(7)       -0.1384609366        0.0226977018       -0.1958133344        0.0320993977
          46        24(5)   4(1)        0.2138773108       -0.0163038131        0.3024681936       -0.0230570736
          47        24(5)   5(1)        0.0890732296       -0.0064018939        0.1259685693       -0.0090536452

       43 elements with absolute value ≤ 5.66D-02 not printed.

 The numbers in parenthesis give the orbital symmetry.

     Configuration operator symmetry = 5
     >> NO ELEMENTS <<


 Perturbation symmetry.     KSYMOP:       6
 Perturbation spin symmetry.TRPLET:       F
 Orbital variables.         KZWOPT:      33
 Configuration variables.   KZCONF:       0
 Total number of variables. KZVAR :      33


 Perturbation symmetry.     KSYMOP:       7
 Perturbation spin symmetry.TRPLET:       F
 Orbital variables.         KZWOPT:      33
 Configuration variables.   KZCONF:       0
 Total number of variables. KZVAR :      33


 Perturbation symmetry.     KSYMOP:       8
 Perturbation spin symmetry.TRPLET:       F
 Orbital variables.         KZWOPT:      15
 Configuration variables.   KZCONF:       0
 Total number of variables. KZVAR :      15


 ----- Solving eigenvalue equations for cubic response -----
       Symmetry 8  ( Au )
       Number of excitations:    3
  IN CRPPVE: MAXRM               600
  IN CRPPVE: LWRK ,LWRK1  1019998894  1018917094
  IN CRPPVE: THCPP         1.0000000000000000E-003



 --- EXCITATION ENERGIES AND TRANSITION MOMENT CALCULATION (MCTDHF) ---

 Operator symmetry = 8  ( Au ); triplet =   F

           0  START configuration VECTORS USING LOWEST DIAGONAL HESSIAN ELEMENTS
           3  START orbital VECTORS

 ** RSPCTL MICROITERATION NUMBER    1

      Root  Residual tot.,    conf., and orb.    Bnorm      Eigenvalue
      ----------------------------------------------------------------
         1    5.55918D-02  0.00D+00  5.56D-02  7.08D-01    3.44238D-01
         2    6.17184D-02  0.00D+00  6.17D-02  7.07D-01    3.61697D-01
         3    3.99786D-02  0.00D+00  4.00D-02  7.07D-01    6.16431D-01

 ** RSPCTL MICROITERATION NUMBER    2

      Root  Residual tot.,    conf., and orb.    Bnorm      Eigenvalue
      ----------------------------------------------------------------
         1    3.67612D-03  0.00D+00  3.68D-03  7.08D-01    3.40637D-01
         2    4.37276D-03  0.00D+00  4.37D-03  7.07D-01    3.58444D-01
         3    2.79505D-03  0.00D+00  2.80D-03  7.07D-01    6.15168D-01

 ** RSPCTL MICROITERATION NUMBER    3

      Root  Residual tot.,    conf., and orb.    Bnorm      Eigenvalue
      ----------------------------------------------------------------
         1    8.96703D-05  0.00D+00  8.97D-05  7.08D-01    3.40634D-01
         2    1.03808D-04  0.00D+00  1.04D-04  7.07D-01    3.58441D-01
         3    3.18626D-03  0.00D+00  3.19D-03  7.07D-01    6.15163D-01

 ** RSPCTL MICROITERATION NUMBER    4

      Root  Residual tot.,    conf., and orb.    Bnorm      Eigenvalue
      ----------------------------------------------------------------
         1    3.05523D-05  0.00D+00  3.06D-05  7.08D-01    3.40634D-01
         2    3.55029D-05  0.00D+00  3.55D-05  7.07D-01    3.58441D-01
         3    2.18865D-03  0.00D+00  2.19D-03  7.07D-01    6.15047D-01

 ** RSPCTL MICROITERATION NUMBER    5

      Root  Residual tot.,    conf., and orb.    Bnorm      Eigenvalue
      ----------------------------------------------------------------
         1    1.86945D-05  0.00D+00  1.87D-05  7.08D-01    3.40634D-01
         2    2.00374D-05  0.00D+00  2.00D-05  7.07D-01    3.58441D-01
         3    5.23680D-05  0.00D+00  5.24D-05  7.07D-01    6.15046D-01

 *** THE REQUESTED    3 SOLUTION VECTORS CONVERGED

 Convergence of RSP solution vectors, threshold = 1.00D-03
 ---------------------------------------------------------------
 (dimension of paired reduced space:   22)
 RSP solution vector no.    1; norm of residual   2.64D-05
 RSP solution vector no.    2; norm of residual   2.83D-05
 RSP solution vector no.    3; norm of residual   7.41D-05

 *** RSPCTL MICROITERATIONS CONVERGED

     Response orbital operator symmetry = 8
     (only scaled elements abs greater than   10.00 % of max abs value)

      Index(r,s)      r      s        (r s) operator      (s r) operator      (r s) scaled        (s r) scaled
      ----------    -----  -----      --------------      --------------      --------------      --------------
           4        12(2)  39(7)       -0.4946464158       -0.0207404387       -0.6995356699       -0.0293314097
           5        12(2)  40(7)        0.0746599345        0.0067887309        0.1055850919        0.0096007154
           9        17(3)  34(6)        0.4946464138        0.0207404397        0.6995356669        0.0293314111
          10        17(3)  35(6)       -0.0746599375       -0.0067887331       -0.1055850961       -0.0096007184

       11 elements with absolute value ≤ 7.00D-02 not printed.

 The numbers in parenthesis give the orbital symmetry.

     Configuration operator symmetry = 8
     >> NO ELEMENTS <<

     Response orbital operator symmetry = 8
     (only scaled elements abs greater than   10.00 % of max abs value)

      Index(r,s)      r      s        (r s) operator      (s r) operator      (r s) scaled        (s r) scaled
      ----------    -----  -----      --------------      --------------      --------------      --------------
           4        12(2)  39(7)        0.4956956901       -0.0072699862        0.7010195678       -0.0102813131
           5        12(2)  40(7)       -0.0646174729        0.0020830179       -0.0913829066        0.0029458322
           9        17(3)  34(6)        0.4956956914       -0.0072699868        0.7010195695       -0.0102813139
          10        17(3)  35(6)       -0.0646174755        0.0020830168       -0.0913829102        0.0029458306

       11 elements with absolute value ≤ 7.01D-02 not printed.

 The numbers in parenthesis give the orbital symmetry.

     Configuration operator symmetry = 8
     >> NO ELEMENTS <<

     Response orbital operator symmetry = 8
     (only scaled elements abs greater than   10.00 % of max abs value)

      Index(r,s)      r      s        (r s) operator      (s r) operator      (r s) scaled        (s r) scaled
      ----------    -----  -----      --------------      --------------      --------------      --------------
           4        12(2)  39(7)       -0.0651076111       -0.0011032352       -0.0920760667       -0.0015602101
           5        12(2)  40(7)       -0.4952390429        0.0006042347       -0.7003737711        0.0008545169
           9        17(3)  34(6)       -0.0651075360       -0.0011032391       -0.0920759605       -0.0015602156
          10        17(3)  35(6)       -0.4952385527        0.0006042358       -0.7003730779        0.0008545185

       11 elements with absolute value ≤ 7.00D-02 not printed.

 The numbers in parenthesis give the orbital symmetry.

     Configuration operator symmetry = 8
     >> NO ELEMENTS <<


 Perturbation symmetry.     KSYMOP:       1
 Perturbation spin symmetry.TRPLET:       F
 Orbital variables.         KZWOPT:      50
 Configuration variables.   KZCONF:       0
 Total number of variables. KZVAR :      50


 Perturbation symmetry.     KSYMOP:       2
 Perturbation spin symmetry.TRPLET:       F
 Orbital variables.         KZWOPT:      31
 Configuration variables.   KZCONF:       0
 Total number of variables. KZVAR :      31


 ----- Solving linear response equations for cubic response -----
       Symmetry 2  ( B3u)
       Number of different response vectors:   18


 CRLRV1 -- linear response calculation for symmetry  2
 CRLRV1 -- operator label : XDIPLEN 
 CRLRV1 -- frequencies :  0.165259  0.166649  0.171321  0.119480  0.163565
                          0.173912  0.113545  0.119480  0.205015



 ---  SOLVING SETS OF LINEAR EQUATIONS FOR LINEAR RESPONSE PROPERTIES ---

 Operator symmetry = 2  ( B3u); triplet =   F


 (RSPORT) b-vector no.  6 is removed because of linear dependence; 3.33819D-27

 (RSPORT) b-vector no.  8 is removed because of linear dependence; 2.01012D-31
RSPORT:    2 out of    9 new trial vectors linear dependent

 ** RSPCTL MICROITERATION NUMBER    1

 GP * SOLUTION vector at frequency     0.16526 a.u.
 after    7 linear transformations is      8.31651171D+00
 INERTIA (POS,ZER,NEG) of reduced matrix is   14    0    0
 Determinant of reduced matrix is  8.60 * 10 **  3.0

 GP * SOLUTION vector at frequency     0.16665 a.u.
 after    7 linear transformations is      8.32854268D+00
 INERTIA (POS,ZER,NEG) of reduced matrix is   14    0    0
 Determinant of reduced matrix is  8.54 * 10 **  3.0

 GP * SOLUTION vector at frequency     0.17132 a.u.
 after    7 linear transformations is      8.37008272D+00
 INERTIA (POS,ZER,NEG) of reduced matrix is   14    0    0
 Determinant of reduced matrix is  8.36 * 10 **  3.0

 GP * SOLUTION vector at frequency     0.11948 a.u.
 after    7 linear transformations is      7.99429425D+00
 INERTIA (POS,ZER,NEG) of reduced matrix is   14    0    0
 Determinant of reduced matrix is  1.02 * 10 **  4.0

 GP * SOLUTION vector at frequency     0.16356 a.u.
 after    7 linear transformations is      8.30203639D+00
 INERTIA (POS,ZER,NEG) of reduced matrix is   14    0    0
 Determinant of reduced matrix is  8.66 * 10 **  3.0

 GP * SOLUTION vector at frequency     0.17391 a.u.
 after    7 linear transformations is      8.39385403D+00
 INERTIA (POS,ZER,NEG) of reduced matrix is   14    0    0
 Determinant of reduced matrix is  8.26 * 10 **  3.0

 GP * SOLUTION vector at frequency     0.11354 a.u.
 after    7 linear transformations is      7.96200613D+00
 INERTIA (POS,ZER,NEG) of reduced matrix is   14    0    0
 Determinant of reduced matrix is  1.04 * 10 **  4.0

 GP * SOLUTION vector at frequency     0.11948 a.u.
 after    7 linear transformations is      7.99429418D+00
 INERTIA (POS,ZER,NEG) of reduced matrix is   14    0    0
 Determinant of reduced matrix is  1.02 * 10 **  4.0

 GP * SOLUTION vector at frequency     0.20502 a.u.
 after    7 linear transformations is      8.72447302D+00
 INERTIA (POS,ZER,NEG) of reduced matrix is   14    0    0
 Determinant of reduced matrix is  7.02 * 10 **  3.0

       No.  Residual tot.,    conf., and orb.    Bnorm      Frequency 
      ----------------------------------------------------------------
         1    6.67568D-01  0.00D+00  6.68D-01  2.66D+00    1.65259D-01
         2    6.68316D-01  0.00D+00  6.68D-01  2.67D+00    1.66649D-01
         3    6.70897D-01  0.00D+00  6.71D-01  2.69D+00    1.71321D-01
         4    6.47538D-01  0.00D+00  6.48D-01  2.46D+00    1.19480D-01
         5    6.66669D-01  0.00D+00  6.67D-01  2.65D+00    1.63565D-01
         6    6.72373D-01  0.00D+00  6.72D-01  2.71D+00    1.73912D-01
         7    6.45529D-01  0.00D+00  6.46D-01  2.45D+00    1.13545D-01
         8    6.47538D-01  0.00D+00  6.48D-01  2.46D+00    1.19480D-01
         9    6.92904D-01  0.00D+00  6.93D-01  2.90D+00    2.05015D-01

 (RSPORT) b-vector no.  8 is removed because of linear dependence; 8.64026D-33
RSPORT:    1 out of    9 new trial vectors linear dependent

 ** RSPCTL MICROITERATION NUMBER    2

 GP * SOLUTION vector at frequency     0.16526 a.u.
 after   15 linear transformations is      8.49054604D+00
 INERTIA (POS,ZER,NEG) of reduced matrix is   30    0    0
 Determinant of reduced matrix is  8.97 * 10 ** 11.0

 GP * SOLUTION vector at frequency     0.16665 a.u.
 after   15 linear transformations is      8.50305793D+00
 INERTIA (POS,ZER,NEG) of reduced matrix is   30    0    0
 Determinant of reduced matrix is  8.88 * 10 ** 11.0

 GP * SOLUTION vector at frequency     0.17132 a.u.
 after   15 linear transformations is      8.54626378D+00
 INERTIA (POS,ZER,NEG) of reduced matrix is   30    0    0
 Determinant of reduced matrix is  8.58 * 10 ** 11.0

 GP * SOLUTION vector at frequency     0.11948 a.u.
 after   15 linear transformations is      8.15570732D+00
 INERTIA (POS,ZER,NEG) of reduced matrix is   30    0    0
 Determinant of reduced matrix is  1.19 * 10 ** 12.0

 GP * SOLUTION vector at frequency     0.16356 a.u.
 after   15 linear transformations is      8.47549304D+00
 INERTIA (POS,ZER,NEG) of reduced matrix is   30    0    0
 Determinant of reduced matrix is  9.08 * 10 ** 11.0

 GP * SOLUTION vector at frequency     0.17391 a.u.
 after   15 linear transformations is      8.57099212D+00
 INERTIA (POS,ZER,NEG) of reduced matrix is   30    0    0
 Determinant of reduced matrix is  8.41 * 10 ** 11.0

 GP * SOLUTION vector at frequency     0.11354 a.u.
 after   15 linear transformations is      8.12218179D+00
 INERTIA (POS,ZER,NEG) of reduced matrix is   30    0    0
 Determinant of reduced matrix is  1.22 * 10 ** 12.0

 GP * SOLUTION vector at frequency     0.11948 a.u.
 after   15 linear transformations is      8.15570725D+00
 INERTIA (POS,ZER,NEG) of reduced matrix is   30    0    0
 Determinant of reduced matrix is  1.19 * 10 ** 12.0

 GP * SOLUTION vector at frequency     0.20502 a.u.
 after   15 linear transformations is      8.91520658D+00
 INERTIA (POS,ZER,NEG) of reduced matrix is   30    0    0
 Determinant of reduced matrix is  6.44 * 10 ** 11.0

       No.  Residual tot.,    conf., and orb.    Bnorm      Frequency 
      ----------------------------------------------------------------
         1    3.18809D-02  0.00D+00  3.19D-02  2.72D+00    1.65259D-01
         2    3.20001D-02  0.00D+00  3.20D-02  2.73D+00    1.66649D-01
         3    3.24135D-02  0.00D+00  3.24D-02  2.75D+00    1.71321D-01
         4    2.87888D-02  0.00D+00  2.88D-02  2.52D+00    1.19480D-01
         5    3.17379D-02  0.00D+00  3.17D-02  2.71D+00    1.63565D-01
         6    3.26515D-02  0.00D+00  3.27D-02  2.77D+00    1.73912D-01
         7    2.84893D-02  0.00D+00  2.85D-02  2.50D+00    1.13545D-01
         8    2.87888D-02  0.00D+00  2.88D-02  2.52D+00    1.19480D-01
         9    3.60703D-02  0.00D+00  3.61D-02  2.97D+00    2.05015D-01

 (RSPORT) b-vector no.  6 is removed because of linear dependence; 1.23663D-29

 (RSPORT) b-vector no.  8 is removed because of linear dependence; 1.80680D-33
RSPORT:    2 out of    9 new trial vectors linear dependent

 ** RSPCTL MICROITERATION NUMBER    3

 GP * SOLUTION vector at frequency     0.16526 a.u.
 after   22 linear transformations is      8.49066093D+00
 INERTIA (POS,ZER,NEG) of reduced matrix is   44    0    0
 Determinant of reduced matrix is  6.03 * 10 ** 24.0

 GP * SOLUTION vector at frequency     0.16665 a.u.
 after   22 linear transformations is      8.50317376D+00
 INERTIA (POS,ZER,NEG) of reduced matrix is   44    0    0
 Determinant of reduced matrix is  5.97 * 10 ** 24.0

 GP * SOLUTION vector at frequency     0.17132 a.u.
 after   22 linear transformations is      8.54638290D+00
 INERTIA (POS,ZER,NEG) of reduced matrix is   44    0    0
 Determinant of reduced matrix is  5.75 * 10 ** 24.0

 GP * SOLUTION vector at frequency     0.11948 a.u.
 after   22 linear transformations is      8.15579918D+00
 INERTIA (POS,ZER,NEG) of reduced matrix is   44    0    0
 Determinant of reduced matrix is  8.15 * 10 ** 24.0

 GP * SOLUTION vector at frequency     0.16356 a.u.
 after   22 linear transformations is      8.47560681D+00
 INERTIA (POS,ZER,NEG) of reduced matrix is   44    0    0
 Determinant of reduced matrix is  6.11 * 10 ** 24.0

 GP * SOLUTION vector at frequency     0.17391 a.u.
 after   22 linear transformations is      8.57111315D+00
 INERTIA (POS,ZER,NEG) of reduced matrix is   44    0    0
 Determinant of reduced matrix is  5.63 * 10 ** 24.0

 GP * SOLUTION vector at frequency     0.11354 a.u.
 after   22 linear transformations is      8.12227155D+00
 INERTIA (POS,ZER,NEG) of reduced matrix is   44    0    0
 Determinant of reduced matrix is  8.40 * 10 ** 24.0

 GP * SOLUTION vector at frequency     0.11948 a.u.
 after   22 linear transformations is      8.15579911D+00
 INERTIA (POS,ZER,NEG) of reduced matrix is   44    0    0
 Determinant of reduced matrix is  8.15 * 10 ** 24.0

 GP * SOLUTION vector at frequency     0.20502 a.u.
 after   22 linear transformations is      8.91535674D+00
 INERTIA (POS,ZER,NEG) of reduced matrix is   44    0    0
 Determinant of reduced matrix is  4.23 * 10 ** 24.0

       No.  Residual tot.,    conf., and orb.    Bnorm      Frequency 
      ----------------------------------------------------------------
         1    4.53970D-04  0.00D+00  4.54D-04  2.72D+00    1.65259D-01
         2    4.55363D-04  0.00D+00  4.55D-04  2.73D+00    1.66649D-01
         3    4.60191D-04  0.00D+00  4.60D-04  2.75D+00    1.71321D-01
         4    4.17556D-04  0.00D+00  4.18D-04  2.52D+00    1.19480D-01
         5    4.52297D-04  0.00D+00  4.52D-04  2.71D+00    1.63565D-01
         6    4.62967D-04  0.00D+00  4.63D-04  2.77D+00    1.73912D-01
         7    4.14000D-04  0.00D+00  4.14D-04  2.50D+00    1.13545D-01
         8    4.17556D-04  0.00D+00  4.18D-04  2.52D+00    1.19480D-01
         9    5.02582D-04  0.00D+00  5.03D-04  2.97D+00    2.05015D-01

 *** THE REQUESTED    9 SOLUTION VECTORS CONVERGED

 Convergence of RSP solution vectors, threshold = 1.00D-03
 ---------------------------------------------------------------
 (dimension of paired reduced space:   44)
 RSP solution vector no.    1; norm of residual   1.67D-04
 RSP solution vector no.    2; norm of residual   1.67D-04
 RSP solution vector no.    3; norm of residual   1.67D-04
 RSP solution vector no.    4; norm of residual   1.66D-04
 RSP solution vector no.    5; norm of residual   1.67D-04
 RSP solution vector no.    6; norm of residual   1.67D-04
 RSP solution vector no.    7; norm of residual   1.66D-04
 RSP solution vector no.    8; norm of residual   1.66D-04
 RSP solution vector no.    9; norm of residual   1.69D-04

 *** RSPCTL MICROITERATIONS CONVERGED

    XDIPLEN       freq            LR value
 -----------------------------------------
              0.165259          8.49066093
              0.166649          8.50317376
              0.171321          8.54638290
              0.119480          8.15579918
              0.163565          8.47560681
              0.173912          8.57111315
              0.113545          8.12227155
              0.119480          8.15579911
              0.205015          8.91535674


 Perturbation symmetry.     KSYMOP:       3
 Perturbation spin symmetry.TRPLET:       F
 Orbital variables.         KZWOPT:      31
 Configuration variables.   KZCONF:       0
 Total number of variables. KZVAR :      31


 ----- Solving linear response equations for cubic response -----
       Symmetry 3  ( B2u)
       Number of different response vectors:   18


 CRLRV1 -- linear response calculation for symmetry  3
 CRLRV1 -- operator label : YDIPLEN 
 CRLRV1 -- frequencies :  0.165259  0.166649  0.171321  0.119480  0.163565
                          0.173912  0.113545  0.119480  0.205015



 ---  SOLVING SETS OF LINEAR EQUATIONS FOR LINEAR RESPONSE PROPERTIES ---

 Operator symmetry = 3  ( B2u); triplet =   F


 (RSPORT) b-vector no.  6 is removed because of linear dependence; 2.90153D-27

 (RSPORT) b-vector no.  8 is removed because of linear dependence; 4.62469D-31
RSPORT:    2 out of    9 new trial vectors linear dependent

 ** RSPCTL MICROITERATION NUMBER    1

 GP * SOLUTION vector at frequency     0.16526 a.u.
 after    7 linear transformations is      8.31330714D+00
 INERTIA (POS,ZER,NEG) of reduced matrix is   14    0    0
 Determinant of reduced matrix is  4.00 * 10 **  3.0

 GP * SOLUTION vector at frequency     0.16665 a.u.
 after    7 linear transformations is      8.32533198D+00
 INERTIA (POS,ZER,NEG) of reduced matrix is   14    0    0
 Determinant of reduced matrix is  3.98 * 10 **  3.0

[...]

 is equal to the already calculated

 Third order transition moment in a.u. for
 A operator, symmetry, frequency:   YDIPLEN    3  0.171321
 B operator, symmetry, frequency:   YDIPLEN    3  0.171321
 C operator, symmetry, frequency:   XDIPLEN    2  0.171321
 Symmetry, excitation energy:                  2  0.513963


   Contribution                Term         Accumulated
 ------------------------------------------------------
Contribution from C4FOCK:      1.732793688695
 DFT-CR integration time:       3.39 s
Contribution from DFTCRCS:                 0.6
 Na T[4] Nb Nc Nd        3.50185258          3.50185258
 Na T[3] Nx Nyz        -91.19903039        -87.69717782
 Na X[3] Ny Nz           4.57267215        -83.12450566
 Nx A[3] Ny Nz           3.07544467        -80.04906099
 Na X[2] Nyz           -79.67527724       -159.72433823
 Nx A[2] Nyz           -29.90352706       -189.62786529

@ Third order transition moment in a.u. for
@ A operator, symmetry, frequency:   ZDIPLEN    5  0.165259
@ B operator, symmetry, frequency:   ZDIPLEN    5  0.165259
@ C operator, symmetry, frequency:   XDIPLEN    2  0.165259

@ State no., symmetry, excitation energy:   1   2  0.495778

@ < 0 | ABC | f >  =        -189.62786529



 Third order transition moment in a.u. for
 A operator, symmetry, frequency:   ZDIPLEN    5  0.165259
 B operator, symmetry, frequency:   ZDIPLEN    5  0.165259
 C operator, symmetry, frequency:   XDIPLEN    2  0.165259
 State no.,  symmetry, excitation energy:      2  0.495778

 is equal to the already calculated

 Third order transition moment in a.u. for
 A operator, symmetry, frequency:   ZDIPLEN    5  0.165259
 B operator, symmetry, frequency:   ZDIPLEN    5  0.165259
 C operator, symmetry, frequency:   XDIPLEN    2  0.165259
 Symmetry, excitation energy:                  2  0.495778


   Contribution                Term         Accumulated
 ------------------------------------------------------
Contribution from C4FOCK:      3.162303242920
 DFT-CR integration time:       3.38 s
Contribution from DFTCRCS:                -0.3
 Na T[4] Nb Nc Nd        1.80727886          1.80727886
 Na T[3] Nx Nyz        -62.99077150        -61.18349263
 Na X[3] Ny Nz          -5.20009454        -66.38358718
 Nx A[3] Ny Nz          -3.33968117        -69.72326835
 Na X[2] Nyz            -7.75728380        -77.48055215
 Nx A[2] Nyz            86.70966959          9.22911744

@ Third order transition moment in a.u. for
@ A operator, symmetry, frequency:   ZDIPLEN    5  0.166649
@ B operator, symmetry, frequency:   ZDIPLEN    5  0.166649
@ C operator, symmetry, frequency:   XDIPLEN    2  0.166649

@ State no., symmetry, excitation energy:   2   2  0.499946

@ < 0 | ABC | f >  =           9.22911744



 Third order transition moment in a.u. for
 A operator, symmetry, frequency:   ZDIPLEN    5  0.166649
 B operator, symmetry, frequency:   ZDIPLEN    5  0.166649
 C operator, symmetry, frequency:   XDIPLEN    2  0.166649
 State no.,  symmetry, excitation energy:      2  0.499946

 is equal to the already calculated

 Third order transition moment in a.u. for
 A operator, symmetry, frequency:   ZDIPLEN    5  0.166649
 B operator, symmetry, frequency:   ZDIPLEN    5  0.166649
 C operator, symmetry, frequency:   XDIPLEN    2  0.166649
 Symmetry, excitation energy:                  2  0.499946


   Contribution                Term         Accumulated
 ------------------------------------------------------
Contribution from C4FOCK:      6.041432856129
 DFT-CR integration time:       3.50 s
Contribution from DFTCRCS:                -0.4
 Na T[4] Nb Nc Nd        4.00868668          4.00868668
 Na T[3] Nx Nyz       -372.74466618       -368.73597949
 Na X[3] Ny Nz          -6.29090963       -375.02688912
 Nx A[3] Ny Nz          -4.72002730       -379.74691643
 Na X[2] Nyz            -4.33912714       -384.08604357
 Nx A[2] Nyz           397.97348729         13.88744372

@ Third order transition moment in a.u. for
@ A operator, symmetry, frequency:   ZDIPLEN    5  0.171321
@ B operator, symmetry, frequency:   ZDIPLEN    5  0.171321
@ C operator, symmetry, frequency:   XDIPLEN    2  0.171321

@ State no., symmetry, excitation energy:   3   2  0.513963

@ < 0 | ABC | f >  =          13.88744372



 Third order transition moment in a.u. for
 A operator, symmetry, frequency:   ZDIPLEN    5  0.171321
 B operator, symmetry, frequency:   ZDIPLEN    5  0.171321
 C operator, symmetry, frequency:   XDIPLEN    2  0.171321
 State no.,  symmetry, excitation energy:      2  0.513963

 is equal to the already calculated

 Third order transition moment in a.u. for
 A operator, symmetry, frequency:   ZDIPLEN    5  0.171321
 B operator, symmetry, frequency:   ZDIPLEN    5  0.171321
 C operator, symmetry, frequency:   XDIPLEN    2  0.171321
 Symmetry, excitation energy:                  2  0.513963


 Third order transition moment in a.u. for
 A operator, symmetry, frequency:   YDIPLEN    3  0.165259
 B operator, symmetry, frequency:   XDIPLEN    2  0.165259
 C operator, symmetry, frequency:   YDIPLEN    3  0.165259
 State no.,  symmetry, excitation energy:      2  0.495778

 is equal to the already calculated

 Third order transition moment in a.u. for
 A operator, symmetry, frequency:   YDIPLEN    3  0.165259
 B operator, symmetry, frequency:   YDIPLEN    3  0.165259
 C operator, symmetry, frequency:   XDIPLEN    2  0.165259
 Symmetry, excitation energy:                  2  0.495778


 Third order transition moment in a.u. for
 A operator, symmetry, frequency:   YDIPLEN    3  0.165259
 B operator, symmetry, frequency:   XDIPLEN    2  0.165259
 C operator, symmetry, frequency:   YDIPLEN    3  0.165259
 State no.,  symmetry, excitation energy:      2  0.495778

 is equal to the already calculated

 Third order transition moment in a.u. for
 A operator, symmetry, frequency:   YDIPLEN    3  0.165259
 B operator, symmetry, frequency:   YDIPLEN    3  0.165259
 C operator, symmetry, frequency:   XDIPLEN    2  0.165259
 Symmetry, excitation energy:                  2  0.495778


 Third order transition moment in a.u. for
 A operator, symmetry, frequency:   YDIPLEN    3  0.166649
 B operator, symmetry, frequency:   XDIPLEN    2  0.166649
 C operator, symmetry, frequency:   YDIPLEN    3  0.166649
 State no.,  symmetry, excitation energy:      2  0.499946

 is equal to the already calculated

 Third order transition moment in a.u. for
 A operator, symmetry, frequency:   YDIPLEN    3  0.166649
 B operator, symmetry, frequency:   YDIPLEN    3  0.166649
 C operator, symmetry, frequency:   XDIPLEN    2  0.166649
 Symmetry, excitation energy:                  2  0.499946


 Third order transition moment in a.u. for
 A operator, symmetry, frequency:   YDIPLEN    3  0.166649
 B operator, symmetry, frequency:   XDIPLEN    2  0.166649
 C operator, symmetry, frequency:   YDIPLEN    3  0.166649
 State no.,  symmetry, excitation energy:      2  0.499946

 is equal to the already calculated

 Third order transition moment in a.u. for
 A operator, symmetry, frequency:   YDIPLEN    3  0.166649
 B operator, symmetry, frequency:   YDIPLEN    3  0.166649
 C operator, symmetry, frequency:   XDIPLEN    2  0.166649
 Symmetry, excitation energy:                  2  0.499946


 Third order transition moment in a.u. for
 A operator, symmetry, frequency:   YDIPLEN    3  0.171321
 B operator, symmetry, frequency:   XDIPLEN    2  0.171321
 C operator, symmetry, frequency:   YDIPLEN    3  0.171321
 State no.,  symmetry, excitation energy:      2  0.513963

 is equal to the already calculated

 Third order transition moment in a.u. for
 A operator, symmetry, frequency:   YDIPLEN    3  0.171321
 B operator, symmetry, frequency:   YDIPLEN    3  0.171321
 C operator, symmetry, frequency:   XDIPLEN    2  0.171321
 Symmetry, excitation energy:                  2  0.513963


 Third order transition moment in a.u. for
 A operator, symmetry, frequency:   YDIPLEN    3  0.171321
 B operator, symmetry, frequency:   XDIPLEN    2  0.171321
 C operator, symmetry, frequency:   YDIPLEN    3  0.171321
 State no.,  symmetry, excitation energy:      2  0.513963

 is equal to the already calculated

 Third order transition moment in a.u. for
 A operator, symmetry, frequency:   YDIPLEN    3  0.171321
 B operator, symmetry, frequency:   YDIPLEN    3  0.171321
 C operator, symmetry, frequency:   XDIPLEN    2  0.171321
 Symmetry, excitation energy:                  2  0.513963


 Third order transition moment in a.u. for
 A operator, symmetry, frequency:   XDIPLEN    2  0.165259
 B operator, symmetry, frequency:   YDIPLEN    3  0.165259
 C operator, symmetry, frequency:   YDIPLEN    3  0.165259
 State no.,  symmetry, excitation energy:      2  0.495778

 is equal to the already calculated

 Third order transition moment in a.u. for
 A operator, symmetry, frequency:   YDIPLEN    3  0.165259
 B operator, symmetry, frequency:   YDIPLEN    3  0.165259
 C operator, symmetry, frequency:   XDIPLEN    2  0.165259
 Symmetry, excitation energy:                  2  0.495778


 Third order transition moment in a.u. for
 A operator, symmetry, frequency:   XDIPLEN    2  0.165259
 B operator, symmetry, frequency:   YDIPLEN    3  0.165259
 C operator, symmetry, frequency:   YDIPLEN    3  0.165259
 State no.,  symmetry, excitation energy:      2  0.495778

 is equal to the already calculated

 Third order transition moment in a.u. for
 A operator, symmetry, frequency:   YDIPLEN    3  0.165259
 B operator, symmetry, frequency:   YDIPLEN    3  0.165259
 C operator, symmetry, frequency:   XDIPLEN    2  0.165259
 Symmetry, excitation energy:                  2  0.495778


 Third order transition moment in a.u. for
 A operator, symmetry, frequency:   XDIPLEN    2  0.166649
 B operator, symmetry, frequency:   YDIPLEN    3  0.166649
 C operator, symmetry, frequency:   YDIPLEN    3  0.166649
 State no.,  symmetry, excitation energy:      2  0.499946

 is equal to the already calculated

 Third order transition moment in a.u. for
 A operator, symmetry, frequency:   YDIPLEN    3  0.166649
 B operator, symmetry, frequency:   YDIPLEN    3  0.166649
 C operator, symmetry, frequency:   XDIPLEN    2  0.166649
 Symmetry, excitation energy:                  2  0.499946


 Third order transition moment in a.u. for
 A operator, symmetry, frequency:   XDIPLEN    2  0.166649
 B operator, symmetry, frequency:   YDIPLEN    3  0.166649
 C operator, symmetry, frequency:   YDIPLEN    3  0.166649
 State no.,  symmetry, excitation energy:      2  0.499946

 is equal to the already calculated

 Third order transition moment in a.u. for
 A operator, symmetry, frequency:   YDIPLEN    3  0.166649
 B operator, symmetry, frequency:   YDIPLEN    3  0.166649
 C operator, symmetry, frequency:   XDIPLEN    2  0.166649
 Symmetry, excitation energy:                  2  0.499946


 Third order transition moment in a.u. for
 A operator, symmetry, frequency:   XDIPLEN    2  0.171321
 B operator, symmetry, frequency:   YDIPLEN    3  0.171321
 C operator, symmetry, frequency:   YDIPLEN    3  0.171321
 State no.,  symmetry, excitation energy:      2  0.513963

 is equal to the already calculated

 Third order transition moment in a.u. for
 A operator, symmetry, frequency:   YDIPLEN    3  0.171321
 B operator, symmetry, frequency:   YDIPLEN    3  0.171321
 C operator, symmetry, frequency:   XDIPLEN    2  0.171321
 Symmetry, excitation energy:                  2  0.513963


 Third order transition moment in a.u. for
 A operator, symmetry, frequency:   XDIPLEN    2  0.171321
 B operator, symmetry, frequency:   YDIPLEN    3  0.171321
 C operator, symmetry, frequency:   YDIPLEN    3  0.171321
 State no.,  symmetry, excitation energy:      2  0.513963

 is equal to the already calculated

 Third order transition moment in a.u. for
 A operator, symmetry, frequency:   YDIPLEN    3  0.171321
 B operator, symmetry, frequency:   YDIPLEN    3  0.171321
 C operator, symmetry, frequency:   XDIPLEN    2  0.171321
 Symmetry, excitation energy:                  2  0.513963


 Third order transition moment in a.u. for
 A operator, symmetry, frequency:   ZDIPLEN    5  0.165259
 B operator, symmetry, frequency:   XDIPLEN    2  0.165259
 C operator, symmetry, frequency:   ZDIPLEN    5  0.165259
 State no.,  symmetry, excitation energy:      2  0.495778

 is equal to the already calculated

 Third order transition moment in a.u. for
 A operator, symmetry, frequency:   ZDIPLEN    5  0.165259
 B operator, symmetry, frequency:   ZDIPLEN    5  0.165259
 C operator, symmetry, frequency:   XDIPLEN    2  0.165259
 Symmetry, excitation energy:                  2  0.495778


 Third order transition moment in a.u. for
 A operator, symmetry, frequency:   ZDIPLEN    5  0.165259
 B operator, symmetry, frequency:   XDIPLEN    2  0.165259
 C operator, symmetry, frequency:   ZDIPLEN    5  0.165259
 State no.,  symmetry, excitation energy:      2  0.495778

 is equal to the already calculated

 Third order transition moment in a.u. for
 A operator, symmetry, frequency:   ZDIPLEN    5  0.165259
 B operator, symmetry, frequency:   ZDIPLEN    5  0.165259
 C operator, symmetry, frequency:   XDIPLEN    2  0.165259
 Symmetry, excitation energy:                  2  0.495778


 Third order transition moment in a.u. for
 A operator, symmetry, frequency:   ZDIPLEN    5  0.166649
 B operator, symmetry, frequency:   XDIPLEN    2  0.166649
 C operator, symmetry, frequency:   ZDIPLEN    5  0.166649
 State no.,  symmetry, excitation energy:      2  0.499946

 is equal to the already calculated

 Third order transition moment in a.u. for
 A operator, symmetry, frequency:   ZDIPLEN    5  0.166649
 B operator, symmetry, frequency:   ZDIPLEN    5  0.166649
 C operator, symmetry, frequency:   XDIPLEN    2  0.166649
 Symmetry, excitation energy:                  2  0.499946


 Third order transition moment in a.u. for
 A operator, symmetry, frequency:   ZDIPLEN    5  0.166649
 B operator, symmetry, frequency:   XDIPLEN    2  0.166649
 C operator, symmetry, frequency:   ZDIPLEN    5  0.166649
 State no.,  symmetry, excitation energy:      2  0.499946

 is equal to the already calculated

 Third order transition moment in a.u. for
 A operator, symmetry, frequency:   ZDIPLEN    5  0.166649
 B operator, symmetry, frequency:   ZDIPLEN    5  0.166649
 C operator, symmetry, frequency:   XDIPLEN    2  0.166649
 Symmetry, excitation energy:                  2  0.499946


 Third order transition moment in a.u. for
 A operator, symmetry, frequency:   ZDIPLEN    5  0.171321
 B operator, symmetry, frequency:   XDIPLEN    2  0.171321
 C operator, symmetry, frequency:   ZDIPLEN    5  0.171321
 State no.,  symmetry, excitation energy:      2  0.513963

 is equal to the already calculated

 Third order transition moment in a.u. for
 A operator, symmetry, frequency:   ZDIPLEN    5  0.171321
 B operator, symmetry, frequency:   ZDIPLEN    5  0.171321
 C operator, symmetry, frequency:   XDIPLEN    2  0.171321
 Symmetry, excitation energy:                  2  0.513963


 Third order transition moment in a.u. for
 A operator, symmetry, frequency:   ZDIPLEN    5  0.171321
 B operator, symmetry, frequency:   XDIPLEN    2  0.171321
 C operator, symmetry, frequency:   ZDIPLEN    5  0.171321
 State no.,  symmetry, excitation energy:      2  0.513963

 is equal to the already calculated

 Third order transition moment in a.u. for
 A operator, symmetry, frequency:   ZDIPLEN    5  0.171321
 B operator, symmetry, frequency:   ZDIPLEN    5  0.171321
 C operator, symmetry, frequency:   XDIPLEN    2  0.171321
 Symmetry, excitation energy:                  2  0.513963


 Third order transition moment in a.u. for
 A operator, symmetry, frequency:   XDIPLEN    2  0.165259
 B operator, symmetry, frequency:   ZDIPLEN    5  0.165259
 C operator, symmetry, frequency:   ZDIPLEN    5  0.165259
 State no.,  symmetry, excitation energy:      2  0.495778

 is equal to the already calculated

 Third order transition moment in a.u. for
 A operator, symmetry, frequency:   ZDIPLEN    5  0.165259
 B operator, symmetry, frequency:   ZDIPLEN    5  0.165259
 C operator, symmetry, frequency:   XDIPLEN    2  0.165259
 Symmetry, excitation energy:                  2  0.495778


 Third order transition moment in a.u. for
 A operator, symmetry, frequency:   XDIPLEN    2  0.165259
 B operator, symmetry, frequency:   ZDIPLEN    5  0.165259
 C operator, symmetry, frequency:   ZDIPLEN    5  0.165259
 State no.,  symmetry, excitation energy:      2  0.495778

 is equal to the already calculated

 Third order transition moment in a.u. for
 A operator, symmetry, frequency:   ZDIPLEN    5  0.165259
 B operator, symmetry, frequency:   ZDIPLEN    5  0.165259
 C operator, symmetry, frequency:   XDIPLEN    2  0.165259
 Symmetry, excitation energy:                  2  0.495778


 Third order transition moment in a.u. for
 A operator, symmetry, frequency:   XDIPLEN    2  0.166649
 B operator, symmetry, frequency:   ZDIPLEN    5  0.166649
 C operator, symmetry, frequency:   ZDIPLEN    5  0.166649
 State no.,  symmetry, excitation energy:      2  0.499946

 is equal to the already calculated

 Third order transition moment in a.u. for
 A operator, symmetry, frequency:   ZDIPLEN    5  0.166649
 B operator, symmetry, frequency:   ZDIPLEN    5  0.166649
 C operator, symmetry, frequency:   XDIPLEN    2  0.166649
 Symmetry, excitation energy:                  2  0.499946


 Third order transition moment in a.u. for
 A operator, symmetry, frequency:   XDIPLEN    2  0.166649
 B operator, symmetry, frequency:   ZDIPLEN    5  0.166649
 C operator, symmetry, frequency:   ZDIPLEN    5  0.166649
 State no.,  symmetry, excitation energy:      2  0.499946

 is equal to the already calculated

 Third order transition moment in a.u. for
 A operator, symmetry, frequency:   ZDIPLEN    5  0.166649
 B operator, symmetry, frequency:   ZDIPLEN    5  0.166649
 C operator, symmetry, frequency:   XDIPLEN    2  0.166649
 Symmetry, excitation energy:                  2  0.499946


 Third order transition moment in a.u. for
 A operator, symmetry, frequency:   XDIPLEN    2  0.171321
 B operator, symmetry, frequency:   ZDIPLEN    5  0.171321
 C operator, symmetry, frequency:   ZDIPLEN    5  0.171321
 State no.,  symmetry, excitation energy:      2  0.513963

 is equal to the already calculated

 Third order transition moment in a.u. for
 A operator, symmetry, frequency:   ZDIPLEN    5  0.171321
 B operator, symmetry, frequency:   ZDIPLEN    5  0.171321
 C operator, symmetry, frequency:   XDIPLEN    2  0.171321
 Symmetry, excitation energy:                  2  0.513963


 Third order transition moment in a.u. for
 A operator, symmetry, frequency:   XDIPLEN    2  0.171321
 B operator, symmetry, frequency:   ZDIPLEN    5  0.171321
 C operator, symmetry, frequency:   ZDIPLEN    5  0.171321
 State no.,  symmetry, excitation energy:      2  0.513963

 is equal to the already calculated

 Third order transition moment in a.u. for
 A operator, symmetry, frequency:   ZDIPLEN    5  0.171321
 B operator, symmetry, frequency:   ZDIPLEN    5  0.171321
 C operator, symmetry, frequency:   XDIPLEN    2  0.171321
 Symmetry, excitation energy:                  2  0.513963

 Response BD labels XDIPLEN  EXCITLAB with frequencies -0.16526  0.49578
 and symmetries   2   3 not found on file RSPVEC

  --- SEVERE ERROR, PROGRAM WILL BE ABORTED ---
     Date and time (Linux)  : Wed Feb 19 12:07:53 2020
     Host name              : Lab2-333-NPs                            

 Reason: Response vector not found on file

  Total CPU  time used in DALTON:  2 minutes 25 seconds
  Total wall time used in DALTON:  2 minutes 25 seconds


 QTRACE dump of internal trace stack

 ========================
      level    module
 ========================
          6    BCDCHK      
          5    CRTMO       
          4    CRCALC      
          3    RSPDRV      
          2    DALTON      
          1    DALTON main 
 ========================

