

     ************************************************************************
     *************** Dalton - An Electronic Structure Program ***************
     ************************************************************************

    This is output from DALTON release Dalton2018.1 (2019)
         ( Web site: http://daltonprogram.org )

   ----------------------------------------------------------------------------

    NOTE:
     
    Dalton is an experimental code for the evaluation of molecular
    properties using (MC)SCF, DFT, CI, and CC wave functions.
    The authors accept no responsibility for the performance of
    the code or for the correctness of the results.
     
    The code (in whole or part) is provided under a licence and
    is not to be reproduced for further distribution without
    the written permission of the authors or their representatives.
     
    See the home page "http://daltonprogram.org" for further information.
     
    If results obtained with this code are published,
    the appropriate citations would be both of:
     
       K. Aidas, C. Angeli, K. L. Bak, V. Bakken, R. Bast,
       L. Boman, O. Christiansen, R. Cimiraglia, S. Coriani,
       P. Dahle, E. K. Dalskov, U. Ekstroem,
       T. Enevoldsen, J. J. Eriksen, P. Ettenhuber, B. Fernandez,
       L. Ferrighi, H. Fliegl, L. Frediani, K. Hald, A. Halkier,
       C. Haettig, H. Heiberg, T. Helgaker, A. C. Hennum,
       H. Hettema, E. Hjertenaes, S. Hoest, I.-M. Hoeyvik,
       M. F. Iozzi, B. Jansik, H. J. Aa. Jensen, D. Jonsson,
       P. Joergensen, J. Kauczor, S. Kirpekar,
       T. Kjaergaard, W. Klopper, S. Knecht, R. Kobayashi, H. Koch,
       J. Kongsted, A. Krapp, K. Kristensen, A. Ligabue,
       O. B. Lutnaes, J. I. Melo, K. V. Mikkelsen, R. H. Myhre,
       C. Neiss, C. B. Nielsen, P. Norman, J. Olsen,
       J. M. H. Olsen, A. Osted, M. J. Packer, F. Pawlowski,
       T. B. Pedersen, P. F. Provasi, S. Reine, Z. Rinkevicius,
       T. A. Ruden, K. Ruud, V. Rybkin, P. Salek, C. C. M. Samson,
       A. Sanchez de Meras, T. Saue, S. P. A. Sauer,
       B. Schimmelpfennig, K. Sneskov, A. H. Steindal,
       K. O. Sylvester-Hvid, P. R. Taylor, A. M. Teale,
       E. I. Tellgren, D. P. Tew, A. J. Thorvaldsen, L. Thoegersen,
       O. Vahtras, M. A. Watson, D. J. D. Wilson, M. Ziolkowski
       and H. Agren,
       "The Dalton quantum chemistry program system",
       WIREs Comput. Mol. Sci. 2014, 4:269–284 (doi: 10.1002/wcms.1172)
     
    and
     
       Dalton, a molecular electronic structure program,
       Release Dalton2018.1 (2019), see http://daltonprogram.org
   ----------------------------------------------------------------------------

    Authors in alphabetical order (major contribution(s) in parenthesis):

  Kestutis Aidas,           Vilnius University,           Lithuania   (QM/MM)
  Celestino Angeli,         University of Ferrara,        Italy       (NEVPT2)
  Keld L. Bak,              UNI-C,                        Denmark     (AOSOPPA, non-adiabatic coupling, magnetic properties)
  Vebjoern Bakken,          University of Oslo,           Norway      (DALTON; geometry optimizer, symmetry detection)
  Radovan Bast,             UiT The Arctic U. of Norway,  Norway      (DALTON installation and execution frameworks)
  Pablo Baudin,             University of Valencia,       Spain       (Cholesky excitation energies)
  Linus Boman,              NTNU,                         Norway      (Cholesky decomposition and subsystems)
  Ove Christiansen,         Aarhus University,            Denmark     (CC module)
  Renzo Cimiraglia,         University of Ferrara,        Italy       (NEVPT2)
  Sonia Coriani,            Technical Univ. of Denmark,   Denmark     (CC module, MCD in RESPONS)
  Janusz Cukras,            University of Trieste,        Italy       (MChD in RESPONS)
  Paal Dahle,               University of Oslo,           Norway      (Parallelization)
  Erik K. Dalskov,          UNI-C,                        Denmark     (SOPPA)
  Thomas Enevoldsen,        Univ. of Southern Denmark,    Denmark     (SOPPA)
  Janus J. Eriksen,         Aarhus University,            Denmark     (Polarizable embedding model, TDA)
  Rasmus Faber,             University of Copenhagen,     Denmark     (Vib.avg. NMR with SOPPA, parallel AO-SOPPA)
  Tobias Fahleson,          KTH Stockholm,                Sweden      (Damped cubic response)
  Berta Fernandez,          U. of Santiago de Compostela, Spain       (doublet spin, ESR in RESPONS)
  Lara Ferrighi,            Aarhus University,            Denmark     (PCM Cubic response)
  Heike Fliegl,             University of Oslo,           Norway      (CCSD(R12))
  Luca Frediani,            UiT The Arctic U. of Norway,  Norway      (PCM)
  Bin Gao,                  UiT The Arctic U. of Norway,  Norway      (Gen1Int library)
  Christof Haettig,         Ruhr-University Bochum,       Germany     (CC module)
  Kasper Hald,              Aarhus University,            Denmark     (CC module)
  Asger Halkier,            Aarhus University,            Denmark     (CC module)
  Frederik Beyer Hansen,    University of Copenhagen,     Denmark     (Parallel AO-SOPPA)
  Erik D. Hedegaard,        Univ. of Southern Denmark,    Denmark     (Polarizable embedding model, QM/MM)
  Hanne Heiberg,            University of Oslo,           Norway      (geometry analysis, selected one-electron integrals)
  Trygve Helgaker,          University of Oslo,           Norway      (DALTON; ABACUS, ERI, DFT modules, London, and much more)
  Alf Christian Hennum,     University of Oslo,           Norway      (Parity violation)
  Hinne Hettema,            University of Auckland,       New Zealand (quadratic response in RESPONS; SIRIUS supersymmetry)
  Eirik Hjertenaes,         NTNU,                         Norway      (Cholesky decomposition)
  Pi A. B. Haase,           University of Copenhagen,     Denmark     (Triplet AO-SOPPA)
  Maria Francesca Iozzi,    University of Oslo,           Norway      (RPA)
  Christoph Jacob           TU Braunschweig               Germany     (Frozen density embedding model)
  Brano Jansik              Technical Univ. of Ostrava    Czech Rep.  (DFT cubic response)
  Hans Joergen Aa. Jensen,  Univ. of Southern Denmark,    Denmark     (DALTON; SIRIUS, RESPONS, ABACUS modules, London, and much more)
  Dan Jonsson,              UiT The Arctic U. of Norway,  Norway      (cubic response in RESPONS module)
  Poul Joergensen,          Aarhus University,            Denmark     (RESPONS, ABACUS, and CC modules)
  Maciej Kaminski,          University of Warsaw,         Poland      (CPPh in RESPONS)
  Joanna Kauczor,           Linkoeping University,        Sweden      (Complex polarization propagator (CPP) module)
  Sheela Kirpekar,          Univ. of Southern Denmark,    Denmark     (Mass-velocity & Darwin integrals)
  Wim Klopper,              KIT Karlsruhe,                Germany     (R12 code in CC, SIRIUS, and ABACUS modules)
  Stefan Knecht,            ETH Zurich,                   Switzerland (Parallel CI and MCSCF)
  Rika Kobayashi,           Australian National Univ.,    Australia   (DIIS in CC, London in MCSCF)
  Henrik Koch,              NTNU,                         Norway      (CC module, Cholesky decomposition)
  Jacob Kongsted,           Univ. of Southern Denmark,    Denmark     (Polarizable embedding model, QM/MM)
  Andrea Ligabue,           University of Modena,         Italy       (CTOCD, AOSOPPA)
  Nanna H. List             Univ. of Southern Denmark,    Denmark     (Polarizable embedding model)
  Ola B. Lutnaes,           University of Oslo,           Norway      (DFT Hessian)
  Juan I. Melo,             University of Buenos Aires,   Argentina   (LRESC, Relativistic Effects on NMR Shieldings)
  Kurt V. Mikkelsen,        University of Copenhagen,     Denmark     (MC-SCRF and QM/MM)
  Rolf H. Myhre,            NTNU,                         Norway      (Subsystems and CC3)
  Christian Neiss,          Univ. Erlangen-Nuernberg,     Germany     (CCSD(R12))
  Christian B. Nielsen,     University of Copenhagen,     Denmark     (QM/MM)
  Patrick Norman,           KTH Stockholm,                Sweden      (Cubic response and complex frequency response in RESPONS)
  Jeppe Olsen,              Aarhus University,            Denmark     (SIRIUS CI/density modules)
  Jogvan Magnus H. Olsen,   Univ. of Southern Denmark,    Denmark     (Polarizable embedding model, QM/MM)
  Anders Osted,             Copenhagen University,        Denmark     (QM/MM)
  Martin J. Packer,         University of Sheffield,      UK          (SOPPA)
  Filip Pawlowski,          Kazimierz Wielki University,  Poland      (CC3)
  Morten N. Pedersen,       Univ. of Southern Denmark,    Denmark     (Polarizable embedding model)
  Thomas B. Pedersen,       University of Oslo,           Norway      (Cholesky decomposition)
  Patricio F. Provasi,      University of Northeastern,   Argentina   (Analysis of coupling constants in localized orbitals)
  Zilvinas Rinkevicius,     KTH Stockholm,                Sweden      (open-shell DFT, ESR)
  Elias Rudberg,            KTH Stockholm,                Sweden      (DFT grid and basis info)
  Torgeir A. Ruden,         University of Oslo,           Norway      (Numerical derivatives in ABACUS)
  Kenneth Ruud,             UiT The Arctic U. of Norway,  Norway      (DALTON; ABACUS magnetic properties and much more)
  Pawel Salek,              KTH Stockholm,                Sweden      (DALTON; DFT code)
  Claire C. M. Samson       University of Karlsruhe       Germany     (Boys localization, r12 integrals in ERI)
  Alfredo Sanchez de Meras, University of Valencia,       Spain       (CC module, Cholesky decomposition)
  Trond Saue,               Paul Sabatier University,     France      (direct Fock matrix construction)
  Stephan P. A. Sauer,      University of Copenhagen,     Denmark     (SOPPA(CCSD), SOPPA prop., AOSOPPA, vibrational g-factors)
  Andre S. P. Gomes,        CNRS/Universite de Lille,     France      (Frozen density embedding model)
  Bernd Schimmelpfennig,    Forschungszentrum Karlsruhe,  Germany     (AMFI module)
  Kristian Sneskov,         Aarhus University,            Denmark     (Polarizable embedding model, QM/MM)
  Arnfinn H. Steindal,      UiT The Arctic U. of Norway,  Norway      (parallel QM/MM, Polarizable embedding model)
  Casper Steinmann,         Univ. of Southern Denmark,    Denmark     (QFIT, Polarizable embedding model)
  K. O. Sylvester-Hvid,     University of Copenhagen,     Denmark     (MC-SCRF)
  Peter R. Taylor,          VLSCI/Univ. of Melbourne,     Australia   (Symmetry handling ABACUS, integral transformation)
  Andrew M. Teale,          University of Nottingham,     England     (DFT-AC, DFT-D)
  David P. Tew,             University of Bristol,        England     (CCSD(R12))
  Olav Vahtras,             KTH Stockholm,                Sweden      (triplet response, spin-orbit, ESR, TDDFT, open-shell DFT)
  Lucas Visscher,           Vrije Universiteit Amsterdam, Netherlands (Frozen density embedding model)
  David J. Wilson,          La Trobe University,          Australia   (DFT Hessian and DFT magnetizabilities)
  Hans Agren,               KTH Stockholm,                Sweden      (SIRIUS module, RESPONS, MC-SCRF solvation model)
 --------------------------------------------------------------------------------

     Date and time (Linux)  : Mon Jun 24 16:17:30 2019
     Host name              : Lab2-333-NPs                            

 * Work memory size             :  1536000000 = 11.444 gigabytes.

 * Directories for basis set searches:
   1) /home/lab333/dalton/build_2018_atlas
   2) /home/lab333/dalton/build_2018_atlas/basis


Compilation information
-----------------------

 Who compiled             | lab333
 Host                     | Lab2-333-NPs
 System                   | Linux-4.4.0-43-Microsoft
 CMake generator          | Unix Makefiles
 Processor                | x86_64
 64-bit integers          | OFF
 MPI                      | OFF
 Fortran compiler         | /usr/bin/gfortran
 Fortran compiler version | GNU Fortran (Ubuntu 7.3.0-27ubuntu1~18.04) 7.3.0
 C compiler               | /usr/bin/gcc
 C compiler version       | gcc (Ubuntu 7.3.0-27ubuntu1~18.04) 7.3.0
 C++ compiler             | /usr/bin/g++
 C++ compiler version     | g++ (Ubuntu 7.3.0-27ubuntu1~18.04) 7.3.0
 BLAS                     | /usr/lib/x86_64-linux-gnu/libf77blas.so;/usr/lib/x
                          | 86_64-linux-gnu/libcblas.so;/usr/lib/x86_64-linux-
                          | gnu/libatlas.so
 LAPACK                   | /usr/lib/x86_64-linux-gnu/libatlas.so;/usr/lib/x86
                          | _64-linux-gnu/atlas/liblapack.so
 Static linking           | OFF
 Last Git revision        | da625bf48c74028e805616daee31bc5d76b3a20d
 Git branch               | (HEAD detached at Dalton2018.1)
 Configuration time       | 2019-01-18 10:20:51.437510


   Content of the .dal input file
 ----------------------------------

**DALTON INPUT
.RUN RESPONSE
.DIRECT
**WAVE FUNCTIONS
.MCSCF
*CONFIGURATION INPUT
.SPIN MULTIPLICITY
1
.SYMMETRY
1
.INACTIVE ORBITALS
16 11 3 1
.CAS SPACE
1 0 0 1
.ELECTRONS
2
*ORBITAL INPUT
.MOSTART
.HUCKEL
**RESPONSE
*CUBIC
.DIPLEN
**END OF DALTON INPUT


   Content of the .mol file
 ----------------------------

BASIS
aug-cc-pCVDZ
 nitrobenzene
 Generated by the Dalton Input File Plugin for Avogadro
Atomtypes=4 Angstrom Generators=2 X Y
Charge=6.0 Atoms=4
C        0.0000000000            0.0000000000           -0.0265759623
C       -1.2190534920            0.0000000000           -0.6979856948
C       -1.2105095870            0.0000000000           -2.0897394457
C        0.0000000000            0.0000000000           -2.7841484631
Charge=7.0 Atoms=1
N        0.0000000000            0.0000000000            1.4549291696
Charge=8.0 Atoms=1
O       -1.0847503743            0.0000000000            2.0235779798
Charge=1.0 Atoms=3
H       -2.1410602955            0.0000000000           -0.1327964319
H       -2.1492827751            0.0000000000           -2.6311811056
H        0.0000000000            0.0000000000           -3.8683953478


       *******************************************************************
       *********** Output from DALTON general input processing ***********
       *******************************************************************

 --------------------------------------------------------------------------------
   Overall default print level:    0
   Print level for DALTON.STAT:    1

    AO-direct calculation (in sections where implemented)
    HERMIT 1- and 2-electron integral sections will be executed
    "Old" integral transformation used (limited to max 255 basis functions)
    Wave function sections will be executed (SIRIUS module)
    Dynamic molecular response properties section will be executed (RESPONSE module)
 --------------------------------------------------------------------------------


   ****************************************************************************
   *************** Output of molecule and basis set information ***************
   ****************************************************************************


    The two title cards from your ".mol" input:
    ------------------------------------------------------------------------
 1:  nitrobenzene                                                           
 2:  Generated by the Dalton Input File Plugin for Avogadro                 
    ------------------------------------------------------------------------

  Coordinates are entered in Angstrom and converted to atomic units.
          - Conversion factor : 1 bohr = 0.52917721 A

  Atomic type no.    1
  --------------------
  Nuclear charge:   6.00000
  Number of symmetry independent centers:    4
  Number of basis sets to read;    2
  Basis set file used for this atomic type with Z =   6 :
     "/home/lab333/dalton/build_2018_atlas/basis/aug-cc-pCVDZ"

  Atomic type no.    2
  --------------------
  Nuclear charge:   7.00000
  Number of symmetry independent centers:    1
  Number of basis sets to read;    2
  Basis set file used for this atomic type with Z =   7 :
     "/home/lab333/dalton/build_2018_atlas/basis/aug-cc-pCVDZ"

  Atomic type no.    3
  --------------------
  Nuclear charge:   8.00000
  Number of symmetry independent centers:    1
  Number of basis sets to read;    2
  Basis set file used for this atomic type with Z =   8 :
     "/home/lab333/dalton/build_2018_atlas/basis/aug-cc-pCVDZ"

  Atomic type no.    4
  --------------------
  Nuclear charge:   1.00000
  Number of symmetry independent centers:    3
  Number of basis sets to read;    2
  Basis set file used for this atomic type with Z =   1 :
     "/home/lab333/dalton/build_2018_atlas/basis/aug-cc-pCVDZ"


                         SYMGRP: Point group information
                         -------------------------------

@    Point group: C2v

@  * The irrep name for each symmetry:    1: A1     2: B1     3: B2     4: A2 

   * The point group was generated by:

      Reflection in the yz-plane
      Reflection in the xz-plane

   * Group multiplication table

        |  E   C2z  Oxz  Oyz
   -----+--------------------
     E  |  E   C2z  Oxz  Oyz
    C2z | C2z   E   Oyz  Oxz
    Oxz | Oxz  Oyz   E   C2z
    Oyz | Oyz  Oxz  C2z   E 

   * Character table

        |  E   C2z  Oxz  Oyz
   -----+--------------------
    A1  |   1    1    1    1
    B1  |   1   -1    1   -1
    B2  |   1   -1   -1    1
    A2  |   1    1   -1   -1

   * Direct product table

        | A1   B1   B2   A2 
   -----+--------------------
    A1  | A1   B1   B2   A2 
    B1  | B1   A1   A2   B2 
    B2  | B2   A2   A1   B1 
    A2  | A2   B2   B1   A1 


                                 Isotopic Masses
                                 ---------------

                           C          12.000000
                           C   _1     12.000000
                           C   _2     12.000000
                           C   _1     12.000000
                           C   _2     12.000000
                           C          12.000000
                           N          14.003074
                           O   _1     15.994915
                           O   _2     15.994915
                           H   _1      1.007825
                           H   _2      1.007825
                           H   _1      1.007825
                           H   _2      1.007825
                           H           1.007825

                       Total mass:   123.032029 amu
                       Natural abundance:  92.716 %

 Center-of-mass coordinates (a.u.):    0.000000    0.000000   -0.383938


  Atoms and basis sets
  --------------------

  Number of atom types :    4
  Total number of atoms:   14

  Basis set used is "aug-cc-pCVDZ" from the basis set library.

  label    atoms   charge   prim   cont     basis
  ----------------------------------------------------------------------
  C           6    6.0000    39    27      [11s6p2d|5s4p2d]                                   
  N           1    7.0000    39    27      [11s6p2d|5s4p2d]                                   
  O           2    8.0000    39    27      [11s6p2d|5s4p2d]                                   
  H           5    1.0000    11     9      [5s2p|3s2p]                                        
  ----------------------------------------------------------------------
  total:     14   64.0000   406   288
  ----------------------------------------------------------------------
  Spherical harmonic basis used.

  Threshold for neglecting AO integrals:  1.00D-12


  Symmetry Coordinates
  --------------------

  Number of coordinates in each symmetry:    14   14    9    5


   Interatomic separations (in Angstrom):
   --------------------------------------

            C           C   _1      C   _2      C   _1      C   _2      C     
            ------      ------      ------      ------      ------      ------
 C     :    0.000000
 C   _1:    1.391719    0.000000
 C   _2:    1.391719    2.438107    0.000000
 C   _1:    2.392065    1.391780    2.799956    0.000000
 C   _2:    2.392065    2.799956    1.391780    2.421019    0.000000
 C     :    2.757573    2.416230    2.416230    1.395542    1.395542    0.000000
 N     :    1.481505    2.474093    2.474093    3.745665    3.745665    4.239078
 O   _1:    2.319443    2.724875    3.565729    4.115239    4.710371    4.928582
 O   _2:    2.319443    3.565729    2.724875    4.710371    4.115239    4.928582
 H   _1:    2.143694    1.081451    3.407316    2.166922    3.881063    3.407904
 H   _2:    2.143694    3.407316    1.081451    3.881063    2.166922    3.407904
 H   _1:    3.376890    2.145360    3.883675    1.083722    3.403140    2.154719
 H   _2:    3.376890    3.883675    2.145360    3.403140    1.083722    2.154719
 H     :    3.841819    3.396703    3.396703    2.151500    2.151500    1.084247

            N           O   _1      O   _2      H   _1      H   _2      H   _1
            ------      ------      ------      ------      ------      ------
 N     :    0.000000
 O   _1:    1.224763    0.000000
 O   _2:    1.224763    2.169501    0.000000
 H   _1:    2.665523    2.401196    3.880181    0.000000
 H   _2:    2.665523    3.880181    2.401196    4.282121    0.000000
 H   _1:    4.616894    4.774936    5.667958    2.498398    4.964773    0.000000
 H   _2:    4.616894    5.667958    4.774936    4.964773    2.498398    4.298566
 H     :    5.323325    5.990996    5.990996    4.305675    4.305675    2.479943

            H   _2      H     
            ------      ------
 H   _2:    0.000000
 H     :    2.479943    0.000000


  Max    interatomic separation is    5.9910 Angstrom (   11.3213 Bohr)
  between atoms   14 and    8, "H     " and "O   _1".

  Min HX interatomic separation is    1.0815 Angstrom (    2.0436 Bohr)

  Min YX interatomic separation is    1.2248 Angstrom (    2.3145 Bohr)


  Bond distances (Angstrom):
  --------------------------

                  atom 1     atom 2       distance
                  ------     ------       --------
  bond distance:  C   _1     C            1.391719
  bond distance:  C   _2     C            1.391719
  bond distance:  C   _1     C   _1       1.391780
  bond distance:  C   _2     C   _2       1.391780
  bond distance:  C          C   _1       1.395542
  bond distance:  C          C   _2       1.395542
  bond distance:  N          C            1.481505
  bond distance:  O   _1     N            1.224763
  bond distance:  O   _2     N            1.224763
  bond distance:  H   _1     C   _1       1.081451
  bond distance:  H   _2     C   _2       1.081451
  bond distance:  H   _1     C   _1       1.083722
  bond distance:  H   _2     C   _2       1.083722
  bond distance:  H          C            1.084247


  Bond angles (degrees):
  ----------------------

                  atom 1     atom 2     atom 3         angle
                  ------     ------     ------         -----
  bond angle:     C   _1     C          C   _2       122.311
  bond angle:     C   _1     C          N            118.844
  bond angle:     C   _2     C          N            118.844
  bond angle:     C          C   _1     C   _1       118.493
  bond angle:     C          C   _1     H   _1       119.647
  bond angle:     C   _1     C   _1     H   _1       121.860
  bond angle:     C          C   _2     C   _2       118.493
  bond angle:     C          C   _2     H   _2       119.647
  bond angle:     C   _2     C   _2     H   _2       121.860
  bond angle:     C   _1     C   _1     C            120.192
  bond angle:     C   _1     C   _1     H   _1       119.623
  bond angle:     C          C   _1     H   _1       120.185
  bond angle:     C   _2     C   _2     C            120.192
  bond angle:     C   _2     C   _2     H   _2       119.623
  bond angle:     C          C   _2     H   _2       120.185
  bond angle:     C   _1     C          C   _2       120.319
  bond angle:     C   _1     C          H            119.841
  bond angle:     C   _2     C          H            119.841
  bond angle:     C          N          O   _1       117.664
  bond angle:     C          N          O   _2       117.664
  bond angle:     O   _1     N          O   _2       124.671




 Principal moments of inertia (u*A**2) and principal axes
 --------------------------------------------------------

   IA     127.027245          0.000000    0.000000    1.000000
   IB     394.156158          1.000000    0.000000    0.000000
   IC     521.183403          0.000000    1.000000    0.000000


 Rotational constants
 --------------------

@    The molecule is planar.

               A                   B                   C

           3978.5088           1282.1797            969.6759 MHz
            0.132709            0.042769            0.032345 cm-1


@  Nuclear repulsion energy :  412.135415267067 Hartree


  Symmetry Orbitals
  -----------------

  Number of orbitals in each symmetry:         115   91   48   34


  Symmetry  A1 ( 1)

    1     C        1s         1
    2     C        1s         2
    3     C        1s         3
    4     C        1s         4
    5     C        1s         5
    6     C        2pz        8
    7     C        2pz       11
    8     C        2pz       14
    9     C        2pz       17
   10     C        3d0       20
   11     C        3d2+      22
   12     C        3d0       25
   13     C        3d2+      27
   14     C        1s        28 +   29
   15     C        1s        30 +   31
   16     C        1s        32 +   33
   17     C        1s        34 +   35
   18     C        1s        36 +   37
   19     C        2px       38 -   39
   20     C        2pz       42 +   43
   21     C        2px       44 -   45
   22     C        2pz       48 +   49
   23     C        2px       50 -   51
   24     C        2pz       54 +   55
   25     C        2px       56 -   57
   26     C        2pz       60 +   61
   27     C        3d0       66 +   67
   28     C        3d1+      68 -   69
   29     C        3d2+      70 +   71
   30     C        3d0       76 +   77
   31     C        3d1+      78 -   79
   32     C        3d2+      80 +   81
   33     C        1s        82 +   83
   34     C        1s        84 +   85
   35     C        1s        86 +   87
   36     C        1s        88 +   89
   37     C        1s        90 +   91
   38     C        2px       92 -   93
   39     C        2pz       96 +   97
   40     C        2px       98 -   99
   41     C        2pz      102 +  103
   42     C        2px      104 -  105
   43     C        2pz      108 +  109
   44     C        2px      110 -  111
   45     C        2pz      114 +  115
   46     C        3d0      120 +  121
   47     C        3d1+     122 -  123
   48     C        3d2+     124 +  125
   49     C        3d0      130 +  131
   50     C        3d1+     132 -  133
   51     C        3d2+     134 +  135
   52     C        1s       136
   53     C        1s       137
   54     C        1s       138
   55     C        1s       139
   56     C        1s       140
   57     C        2pz      143
   58     C        2pz      146
   59     C        2pz      149
   60     C        2pz      152
   61     C        3d0      155
   62     C        3d2+     157
   63     C        3d0      160
   64     C        3d2+     162
   65     N        1s       163
   66     N        1s       164
   67     N        1s       165
   68     N        1s       166
   69     N        1s       167
   70     N        2pz      170
   71     N        2pz      173
   72     N        2pz      176
   73     N        2pz      179
   74     N        3d0      182
   75     N        3d2+     184
   76     N        3d0      187
   77     N        3d2+     189
   78     O        1s       190 +  191
   79     O        1s       192 +  193
   80     O        1s       194 +  195
   81     O        1s       196 +  197
   82     O        1s       198 +  199
   83     O        2px      200 -  201
   84     O        2pz      204 +  205
   85     O        2px      206 -  207
   86     O        2pz      210 +  211
   87     O        2px      212 -  213
   88     O        2pz      216 +  217
   89     O        2px      218 -  219
   90     O        2pz      222 +  223
   91     O        3d0      228 +  229
   92     O        3d1+     230 -  231
   93     O        3d2+     232 +  233
   94     O        3d0      238 +  239
   95     O        3d1+     240 -  241
   96     O        3d2+     242 +  243
   97     H        1s       244 +  245
   98     H        1s       246 +  247
   99     H        1s       248 +  249
  100     H        2px      250 -  251
  101     H        2pz      254 +  255
  102     H        2px      256 -  257
  103     H        2pz      260 +  261
  104     H        1s       262 +  263
  105     H        1s       264 +  265
  106     H        1s       266 +  267
  107     H        2px      268 -  269
  108     H        2pz      272 +  273
  109     H        2px      274 -  275
  110     H        2pz      278 +  279
  111     H        1s       280
  112     H        1s       281
  113     H        1s       282
  114     H        2pz      285
  115     H        2pz      288


  Symmetry  B1 ( 2)

  116     C        2px        6
  117     C        2px        9
  118     C        2px       12
  119     C        2px       15
  120     C        3d1+      21
  121     C        3d1+      26
  122     C        1s        28 -   29
  123     C        1s        30 -   31
  124     C        1s        32 -   33
  125     C        1s        34 -   35
  126     C        1s        36 -   37
  127     C        2px       38 +   39
  128     C        2pz       42 -   43
  129     C        2px       44 +   45
  130     C        2pz       48 -   49
  131     C        2px       50 +   51
  132     C        2pz       54 -   55
  133     C        2px       56 +   57
  134     C        2pz       60 -   61
  135     C        3d0       66 -   67
  136     C        3d1+      68 +   69
  137     C        3d2+      70 -   71
  138     C        3d0       76 -   77
  139     C        3d1+      78 +   79
  140     C        3d2+      80 -   81
  141     C        1s        82 -   83
  142     C        1s        84 -   85
  143     C        1s        86 -   87
  144     C        1s        88 -   89
  145     C        1s        90 -   91
  146     C        2px       92 +   93
  147     C        2pz       96 -   97
  148     C        2px       98 +   99
  149     C        2pz      102 -  103
  150     C        2px      104 +  105
  151     C        2pz      108 -  109
  152     C        2px      110 +  111
  153     C        2pz      114 -  115
  154     C        3d0      120 -  121
  155     C        3d1+     122 +  123
  156     C        3d2+     124 -  125
  157     C        3d0      130 -  131
  158     C        3d1+     132 +  133
  159     C        3d2+     134 -  135
  160     C        2px      141
  161     C        2px      144
  162     C        2px      147
  163     C        2px      150
  164     C        3d1+     156
  165     C        3d1+     161
  166     N        2px      168
  167     N        2px      171
  168     N        2px      174
  169     N        2px      177
  170     N        3d1+     183
  171     N        3d1+     188
  172     O        1s       190 -  191
  173     O        1s       192 -  193
  174     O        1s       194 -  195
  175     O        1s       196 -  197
  176     O        1s       198 -  199
  177     O        2px      200 +  201
  178     O        2pz      204 -  205
  179     O        2px      206 +  207
  180     O        2pz      210 -  211
  181     O        2px      212 +  213
  182     O        2pz      216 -  217
  183     O        2px      218 +  219
  184     O        2pz      222 -  223
  185     O        3d0      228 -  229
  186     O        3d1+     230 +  231
  187     O        3d2+     232 -  233
  188     O        3d0      238 -  239
  189     O        3d1+     240 +  241
  190     O        3d2+     242 -  243
  191     H        1s       244 -  245
  192     H        1s       246 -  247
  193     H        1s       248 -  249
  194     H        2px      250 +  251
  195     H        2pz      254 -  255
  196     H        2px      256 +  257
  197     H        2pz      260 -  261
  198     H        1s       262 -  263
  199     H        1s       264 -  265
  200     H        1s       266 -  267
  201     H        2px      268 +  269
  202     H        2pz      272 -  273
  203     H        2px      274 +  275
  204     H        2pz      278 -  279
  205     H        2px      283
  206     H        2px      286


  Symmetry  B2 ( 3)

  207     C        2py        7
  208     C        2py       10
  209     C        2py       13
  210     C        2py       16
  211     C        3d1-      19
  212     C        3d1-      24
  213     C        2py       40 +   41
  214     C        2py       46 +   47
  215     C        2py       52 +   53
  216     C        2py       58 +   59
  217     C        3d2-      62 -   63
  218     C        3d1-      64 +   65
  219     C        3d2-      72 -   73
  220     C        3d1-      74 +   75
  221     C        2py       94 +   95
  222     C        2py      100 +  101
  223     C        2py      106 +  107
  224     C        2py      112 +  113
  225     C        3d2-     116 -  117
  226     C        3d1-     118 +  119
  227     C        3d2-     126 -  127
  228     C        3d1-     128 +  129
  229     C        2py      142
  230     C        2py      145
  231     C        2py      148
  232     C        2py      151
  233     C        3d1-     154
  234     C        3d1-     159
  235     N        2py      169
  236     N        2py      172
  237     N        2py      175
  238     N        2py      178
  239     N        3d1-     181
  240     N        3d1-     186
  241     O        2py      202 +  203
  242     O        2py      208 +  209
  243     O        2py      214 +  215
  244     O        2py      220 +  221
  245     O        3d2-     224 -  225
  246     O        3d1-     226 +  227
  247     O        3d2-     234 -  235
  248     O        3d1-     236 +  237
  249     H        2py      252 +  253
  250     H        2py      258 +  259
  251     H        2py      270 +  271
  252     H        2py      276 +  277
  253     H        2py      284
  254     H        2py      287


  Symmetry  A2 ( 4)

  255     C        3d2-      18
  256     C        3d2-      23
  257     C        2py       40 -   41
  258     C        2py       46 -   47
  259     C        2py       52 -   53
  260     C        2py       58 -   59
  261     C        3d2-      62 +   63
  262     C        3d1-      64 -   65
  263     C        3d2-      72 +   73
  264     C        3d1-      74 -   75
  265     C        2py       94 -   95
  266     C        2py      100 -  101
  267     C        2py      106 -  107
  268     C        2py      112 -  113
  269     C        3d2-     116 +  117
  270     C        3d1-     118 -  119
  271     C        3d2-     126 +  127
  272     C        3d1-     128 -  129
  273     C        3d2-     153
  274     C        3d2-     158
  275     N        3d2-     180
  276     N        3d2-     185
  277     O        2py      202 -  203
  278     O        2py      208 -  209
  279     O        2py      214 -  215
  280     O        2py      220 -  221
  281     O        3d2-     224 +  225
  282     O        3d1-     226 -  227
  283     O        3d2-     234 +  235
  284     O        3d1-     236 -  237
  285     H        2py      252 -  253
  286     H        2py      258 -  259
  287     H        2py      270 -  271
  288     H        2py      276 -  277

  Symmetries of electric field:  B1 (2)  B2 (3)  A1 (1)

  Symmetries of magnetic field:  B2 (3)  B1 (2)  A2 (4)


                     .---------------------------------------.
                     | Starting in Integral Section (HERMIT) |
                     `---------------------------------------'



 ***************************************************************************************
 ****************** Output from **INTEGRALS input processing (HERMIT) ******************
 ***************************************************************************************


 - Using defaults, no **INTEGRALS input found

 Default print level:        1

 Calculation of one-electron Hamiltonian integrals.

 Center of mass  (bohr):      0.000000000000      0.000000000000     -0.383938108481
 Operator center (bohr):      0.000000000000      0.000000000000      0.000000000000
 Gauge origin    (bohr):      0.000000000000      0.000000000000      0.000000000000
 Dipole origin   (bohr):      0.000000000000      0.000000000000      0.000000000000


     ************************************************************************
     ************************** Output from HERINT **************************
     ************************************************************************



                      Nuclear contribution to dipole moments
                      --------------------------------------

                 au               Debye          C m (/(10**-30)

      z    -32.41191504       -82.38286538      -274.79965949


  Total CPU  time used in HERMIT:   0.42 seconds
  Total wall time used in HERMIT:   0.42 seconds


                        .----------------------------------.
                        | End of Integral Section (HERMIT) |
                        `----------------------------------'



                   .--------------------------------------------.
                   | Starting in Wave Function Section (SIRIUS) |
                   `--------------------------------------------'


 *** Output from Huckel module :

     Using EWMO model:          F
     Using EHT  model:          T
     Number of Huckel orbitals each symmetry:   24   17    6    3

 Huckel EHT eigenvalues for symmetry :  1
          -20.695822     -15.706036     -11.414993     -11.394585     -11.376746
          -11.362597      -1.748744      -1.555382      -1.196259      -0.941364
           -0.817059      -0.782210      -0.643577      -0.589224      -0.493397
           -0.429144      -0.328230      -0.246947      -0.225806      -0.213738
           -0.205823      -0.178738      -0.166343      -0.160473

 Huckel EHT eigenvalues for symmetry :  2
          -20.700625     -11.396474     -11.377857      -1.399983      -1.203200
           -0.879843      -0.646405      -0.569964      -0.526471      -0.479328
           -0.414891      -0.271537      -0.213209      -0.202807      -0.176234
           -0.165379      -0.163255

 Huckel EHT eigenvalues for symmetry :  3
           -0.800032      -0.672072      -0.465792      -0.384453      -0.281766
           -0.236539

 Huckel EHT eigenvalues for symmetry :  4
           -0.592875      -0.460139      -0.288832

 **********************************************************************
 *SIRIUS* a direct, restricted step, second order MCSCF program       *
 **********************************************************************

 
     Date and time (Linux)  : Mon Jun 24 16:17:31 2019
     Host name              : Lab2-333-NPs                            

 Title lines from ".mol" input file:
      nitrobenzene                                                           
      Generated by the Dalton Input File Plugin for Avogadro                 

 Print level on unit LUPRI =   2 is   0
 Print level on unit LUW4  =   2 is   5

@    MC-SCF optimization.

@    Multi-configurational response calculation.
@              Type: complete active space calculation (CAS).
 Fock matrices are calculated directly without use of integrals on disk.

 Initial molecular orbitals are obtained according to
 ".MOSTART EHT   " input option

     Wave function specification
     ============================
@    Wave function type        --- MC-SCF ---
@    Number of closed shell electrons          62
@    Number of electrons in active shells       2
@    Total charge of the molecule               0

@    Spin multiplicity and 2 M_S                1         0
@    Total number of symmetries                 4 (point group: C2v)
@    Reference state symmetry                   1 (irrep name : A1 )

     Orbital specifications
     ======================
@    Abelian symmetry species          All |    1    2    3    4
@                                          |  A1   B1   B2   A2 
                                       --- |  ---  ---  ---  ---
@    Inactive orbitals                  31 |   16   11    3    1
@    Active orbitals                     2 |    1    0    0    1
@    Secondary orbitals                255 |   98   80   45   32
@    Total number of orbitals          288 |  115   91   48   34
@    Number of basis functions         288 |  115   91   48   34

     Optimization information
     ========================
@    Number of configurations                 2
@    Number of orbital rotations           2762
     ------------------------------------------
@    Total number of variables             2764

     Maximum number of macro iterations      25
     Maximum number of micro iterations     600
     Threshold for MCSCF gradient      1.00D-05
     Number of initial trial vectors          1
     Number of initial CI iterations          3
     Number of simultaneous trial vectors     1

@    This calculation converges to the lowest state for the specified symmetry and spin species.

     Maximum number of NEO/NR iterations  24

    INFORMATION: Switched to "new" integral transformation (from 1988 ;-) )
    because more than 255 basis functions.


        SIRIUS MCSCF optimization (SIROPT)
 ================================================


 Fock matrix screening setting for SIRCNO: IFTHRS =    9


 ----- Output from SIRIUS CI module (CICTL) -----




---> (Re)generating AOTWOINT


     ************************************************************************
     ************************** Output from HERINT **************************
     ************************************************************************


 Threshold for neglecting two-electron integrals:  1.00D-12
 HERMIT - Number of two-electron integrals written:   203489779 ( 23.5% )
 HERMIT - Megabytes written:                           3106.305

  Time used in TWOINT     is      37.61 seconds

 2-el. integral transformation level 0: Total CPU and WALL times (sec)      70.984      73.622

 (CIST1) 2 lowest diagonal elements:

 Element no. Config.no.    Active energy      Total energy

         1 :          2     -1.6603445965   -432.2550338624
         2 :          1      0.6676200161   -429.9270692498


 Convergence threshold for CI optimization :     0.00000500


 The requested root number is now converged.


 *** CI converged in  2 iterations.



@ Final CI energies and residuals in symmetry 1 (irrep A1 )
@    1     -432.255033983766396       5.42D-20

   --- OUTPUT FROM SIRCNO     Keyword = FD+NO 



 --- MACRO ITERATION  1 ---
 --------------------------

 2-el. integral transformation level 3: Total CPU and WALL times (sec)      54.500      54.577

 Fock matrix screening setting for this macro iteration: 10^( -9)

 Total MCSCF energy       :          -432.255033983643443  (MACRO    1)

 - Nuclear repulsion      :           412.135415267066946
 - Inactive energy        :          -842.730104533108829
 - Active energy          :            -1.660344717601562

 Norm of total gradient   :             6.473498118420
 -    of CI gradient      :             0.000000000000
 -    of orbital gradient :             6.473498118420
      Virial theorem: -V/T =      1.989025
@    MULPOP   C       0.23; C   _1  0.25; C   _2  0.25; C   _1  0.23; C   _2  0.23; C       0.36; N       0.26; O   _1 -0.43; O   _2 -0.43; H   _1 -0.20; 
@             H   _2 -0.20; H   _1 -0.19; H   _2 -0.19; H      -0.19; 

 Residual norm when dim(red L) =   4
 NEO root     CSF        orbital          total
    1     0.00062556     1.17979514     1.17979531 converged

 (NEONEX) NEO vector is converged.

   --- OUTPUT FROM SIRCNO     Keyword = FD+NO 



 --- MACRO ITERATION  2 ---
 --------------------------

 2-el. integral transformation level 3: Total CPU and WALL times (sec)      55.359      55.609

 Fock matrix screening setting for this macro iteration: 10^( -9)

 Total MCSCF energy       :          -434.153756962030911  (MACRO    2)

 - Nuclear repulsion      :           412.135415267066946
 - Inactive energy        :          -845.178850247231821
 - Active energy          :            -1.110321981866025

 Norm of total gradient   :             1.452048353745
 -    of CI gradient      :             0.000448075678
 -    of orbital gradient :             1.452048284611
      Virial theorem: -V/T =      1.989129
@    MULPOP   C       1.29; C   _1  0.48; C   _2  0.48; C   _1  0.53; C   _2  0.53; C       0.54; N      -0.13; O   _1 -0.41; O   _2 -0.41; H   _1 -0.59; 
@             H   _2 -0.59; H   _1 -0.57; H   _2 -0.57; H      -0.57; 

 Residual norm when dim(red L) =   4
 NEO root     CSF        orbital          total
    1     0.00042757     0.10437931     0.10438018 converged

 (NEONEX) NEO vector is converged.

   --- OUTPUT FROM SIRCNO     Keyword = FD+NO 



 --- MACRO ITERATION  3 ---
 --------------------------

 2-el. integral transformation level 3: Total CPU and WALL times (sec)      55.188      55.410

 Fock matrix screening setting for this macro iteration: 10^( -9)

 Total MCSCF energy       :          -434.235066584356673  (MACRO    3)

 - Nuclear repulsion      :           412.135415267066946
 - Inactive energy        :          -845.314146047337772
 - Active energy          :            -1.056335804085827

 Norm of total gradient   :             0.156558662988
 -    of CI gradient      :             0.000519104112
 -    of orbital gradient :             0.156557802385
      Virial theorem: -V/T =      1.989679
@    MULPOP   C       1.66; C   _1  0.19; C   _2  0.19; C   _1  0.49; C   _2  0.49; C       0.28; N      -0.14; O   _1 -0.47; O   _2 -0.47; H   _1 -0.44; 
@             H   _2 -0.44; H   _1 -0.45; H   _2 -0.45; H      -0.44; 

 Residual norm when dim(red L) =   4
 NEO root     CSF        orbital          total
    1     0.00051866     0.00747165     0.00748963 converged

 (NEONEX) NEO vector is converged.

   --- OUTPUT FROM SIRCNO     Keyword = FD+NO 



 --- MACRO ITERATION  4 ---
 --------------------------

 2-el. integral transformation level 3: Total CPU and WALL times (sec)      52.469      52.476

 Fock matrix screening setting for this macro iteration: 10^( -9)

 Total MCSCF energy       :          -434.235875683392067  (MACRO    4)

 - Nuclear repulsion      :           412.135415267066946
 - Inactive energy        :          -845.316671612615892
 - Active energy          :            -1.054619337843104

 Norm of total gradient   :             0.007159524356
 -    of CI gradient      :             0.000518796758
 -    of orbital gradient :             0.007140702972
      Virial theorem: -V/T =      1.989503
@    MULPOP   C       1.65; C   _1  0.17; C   _2  0.17; C   _1  0.51; C   _2  0.51; C       0.29; N      -0.15; O   _1 -0.47; O   _2 -0.47; H   _1 -0.43; 
@             H   _2 -0.43; H   _1 -0.44; H   _2 -0.44; H      -0.44; 

 Residual norm when dim(red L) =   6
 NEO root     CSF        orbital          total
    1     0.00000000     0.00023615     0.00023615 converged

 (NEONEX) NEO vector is converged.

   --- OUTPUT FROM SIRCNO     Keyword = FD+NO 



 --- MACRO ITERATION  5 ---
 --------------------------

 2-el. integral transformation level 3: Total CPU and WALL times (sec)      52.453      52.493

 Fock matrix screening setting for this macro iteration: 10^( -9)

 Total MCSCF energy       :          -434.235878914237844  (MACRO    5)

 - Nuclear repulsion      :           412.135415267066946
 - Inactive energy        :          -845.316669535821006
 - Active energy          :            -1.054624645483812

 Norm of total gradient   :             0.000260377332
 -    of CI gradient      :             0.000000017322
 -    of orbital gradient :             0.000260377332
      Virial theorem: -V/T =      1.989500
@    MULPOP   C       1.66; C   _1  0.17; C   _2  0.17; C   _1  0.51; C   _2  0.51; C       0.28; N      -0.15; O   _1 -0.47; O   _2 -0.47; H   _1 -0.44; 
@             H   _2 -0.44; H   _1 -0.44; H   _2 -0.44; H      -0.44; 

 (SIRNEO) iteration (  5, 16)
 Micro iteration termination criterion met, EVAL(ISTATE+1) = -4.74D-06

   --- OUTPUT FROM SIRCNO     Keyword = FD+NO 



 --- MACRO ITERATION  6 ---
 --------------------------

 2-el. integral transformation level 3: Total CPU and WALL times (sec)      52.578      52.619

 Fock matrix screening setting for this macro iteration: 10^( -9)

 Total MCSCF energy       :          -434.235901681651967  (MACRO    6)

 - Nuclear repulsion      :           412.135415267066946
 - Inactive energy        :          -845.334971773394614
 - Active energy          :            -1.036345175324305

 Norm of total gradient   :             0.013042484103
 -    of CI gradient      :             0.012913946817
 -    of orbital gradient :             0.001826573078
      Virial theorem: -V/T =      1.987909
@    MULPOP   C       1.17; C   _1  0.39; C   _2  0.39; C   _1  0.52; C   _2  0.52; C       0.28; N      -0.13; O   _1 -0.45; O   _2 -0.45; H   _1 -0.45; 
@             H   _2 -0.45; H   _1 -0.46; H   _2 -0.46; H      -0.42; 

 Residual norm when dim(red L) =   8
 NEO root     CSF        orbital          total
    1     0.00000000     0.00160489     0.00160489 converged

 (NEONEX) NEO vector is converged.

   --- OUTPUT FROM SIRCNO     Keyword = FD+NO 



 --- MACRO ITERATION  7 ---
 --------------------------

 2-el. integral transformation level 3: Total CPU and WALL times (sec)      52.828      52.849

 Fock matrix screening setting for this macro iteration: 10^( -9)

 Total MCSCF energy       :          -434.235623892358092  (MACRO    7)

 - Nuclear repulsion      :           412.135415267066946
 - Inactive energy        :          -845.271560217910405
 - Active energy          :            -1.099478941514612

 Norm of total gradient   :             0.081630754956
 -    of CI gradient      :             0.081442158887
 -    of orbital gradient :             0.005545710997
      Virial theorem: -V/T =      1.986570
@    MULPOP   C       1.41; C   _1  0.19; C   _2  0.19; C   _1  0.60; C   _2  0.60; C       0.09; N       0.57; O   _1 -0.76; O   _2 -0.76; H   _1 -0.44; 
@             H   _2 -0.44; H   _1 -0.42; H   _2 -0.42; H      -0.44; 

 (SIRSTP) Energy difference;
 actual, predicted and ratio:   0.000277789293875  -0.000292703779607   -0.949046

 (SIRSTP) step is too large -- backstep

   --- OUTPUT FROM SIRCNO     Keyword = FD+NO 



 Optimization control: Step was too large, we backstep


 --- MACRO ITERATION  7 BACKSTEP NO.  1 ---

 2-el. integral transformation level 3: Total CPU and WALL times (sec)      52.469      52.512

 Fock matrix screening setting for this macro iteration: 10^( -9)

 Total MCSCF energy       :          -434.235928929571287  (MACRO    7)

 - Nuclear repulsion      :           412.135415267066946
 - Inactive energy        :          -845.305537123415093
 - Active energy          :            -1.065807073223118

 Norm of total gradient   :             0.024737792032
 -    of CI gradient      :             0.024585571006
 -    of orbital gradient :             0.002740082647
      Virial theorem: -V/T =      1.992142
@    MULPOP   C       1.29; C   _1  0.24; C   _2  0.24; C   _1  0.59; C   _2  0.59; C       0.13; N       0.39; O   _1 -0.65; O   _2 -0.65; H   _1 -0.44; 
@             H   _2 -0.44; H   _1 -0.43; H   _2 -0.43; H      -0.43; 

 (SIRSTP) Energy difference;
 actual, predicted and ratio:  -0.000027247919320  -0.000163081974900    0.167081

 (SIRSTP) step is too large -- backstep

   --- OUTPUT FROM SIRCNO     Keyword = FD+NO 



 Optimization control: Step was too large, we backstep


 --- MACRO ITERATION  7 BACKSTEP NO.  2 ---

 2-el. integral transformation level 3: Total CPU and WALL times (sec)      52.875      52.962

 Fock matrix screening setting for this macro iteration: 10^( -9)

 Total MCSCF energy       :          -434.235971611284242  (MACRO    7)

 - Nuclear repulsion      :           412.135415267066946
 - Inactive energy        :          -845.319600535050654
 - Active energy          :            -1.051786343300557

 Norm of total gradient   :             0.007041473509
 -    of CI gradient      :             0.006859084194
 -    of orbital gradient :             0.001592266685
      Virial theorem: -V/T =      1.993182
@    MULPOP   C       1.22; C   _1  0.29; C   _2  0.29; C   _1  0.57; C   _2  0.57; C       0.17; N       0.24; O   _1 -0.58; O   _2 -0.58; H   _1 -0.44; 
@             H   _2 -0.44; H   _1 -0.44; H   _2 -0.44; H      -0.43; 

 (SIRNEO) iteration (  7,  5)
 Micro iteration termination criterion met, EVAL(ISTATE+1) = -4.68D-04

   --- OUTPUT FROM SIRCNO     Keyword = FD+NO 



 --- MACRO ITERATION  8 ---
 --------------------------

 2-el. integral transformation level 3: Total CPU and WALL times (sec)      54.703      54.892

 Fock matrix screening setting for this macro iteration: 10^( -9)

 Total MCSCF energy       :          -434.236067765294536  (MACRO    8)

 - Nuclear repulsion      :           412.135415267066946
 - Inactive energy        :          -845.271461003883246
 - Active energy          :            -1.100022028478220

 Norm of total gradient   :             0.005993997944
 -    of CI gradient      :             0.004270044390
 -    of orbital gradient :             0.004206510699
      Virial theorem: -V/T =      1.992204
@    MULPOP   C       1.73; C   _1  0.22; C   _2  0.22; C   _1  0.68; C   _2  0.68; C       0.15; N      -0.03; O   _1 -0.72; O   _2 -0.72; H   _1 -0.44; 
@             H   _2 -0.44; H   _1 -0.45; H   _2 -0.45; H      -0.44; 

 Residual norm when dim(red L) =   8
 NEO root     CSF        orbital          total
    1     0.00000000     0.00091300     0.00091300 converged

 (NEONEX) NEO vector is converged.

   --- OUTPUT FROM SIRCNO     Keyword = FD+NO 



 --- MACRO ITERATION  9 ---
 --------------------------

 2-el. integral transformation level 3: Total CPU and WALL times (sec)      52.969      53.018

 Fock matrix screening setting for this macro iteration: 10^( -9)

 Total MCSCF energy       :          -434.236387331446394  (MACRO    9)

 - Nuclear repulsion      :           412.135415267066946
 - Inactive energy        :          -845.138981582674433
 - Active energy          :            -1.232821015838893

 Norm of total gradient   :             0.006130025271
 -    of CI gradient      :             0.005874435198
 -    of orbital gradient :             0.001751633788
      Virial theorem: -V/T =      1.990845
@    MULPOP   C       1.85; C   _1  0.42; C   _2  0.42; C   _1  0.84; C   _2  0.84; C       0.22; N      -0.10; O   _1 -1.13; O   _2 -1.13; H   _1 -0.44; 
@             H   _2 -0.44; H   _1 -0.45; H   _2 -0.45; H      -0.44; 

 Residual norm when dim(red L) =   6
 NEO root     CSF        orbital          total
    1     0.00000000     0.00077550     0.00077550 converged

 (NEONEX) NEO vector is converged.

   --- OUTPUT FROM SIRCNO     Keyword = FD+NO 



 --- MACRO ITERATION 10 ---
 --------------------------

 2-el. integral transformation level 3: Total CPU and WALL times (sec)      52.703      52.747

 Fock matrix screening setting for this macro iteration: 10^( -9)

 Total MCSCF energy       :          -434.236965118627325  (MACRO   10)

 - Nuclear repulsion      :           412.135415267066946
 - Inactive energy        :          -844.991354690269986
 - Active energy          :            -1.381025695424312

 Norm of total gradient   :             0.010629277629
 -    of CI gradient      :             0.010504588490
 -    of orbital gradient :             0.001623318693
      Virial theorem: -V/T =      1.989708
@    MULPOP   C       1.95; C   _1  0.57; C   _2  0.57; C   _1  0.97; C   _2  0.97; C       0.27; N      -0.19; O   _1 -1.46; O   _2 -1.46; H   _1 -0.44; 
@             H   _2 -0.44; H   _1 -0.44; H   _2 -0.44; H      -0.44; 

 Residual norm when dim(red L) =   6
 NEO root     CSF        orbital          total
    1     0.00000000     0.00202291     0.00202291 converged

 (NEONEX) NEO vector is converged.

   --- OUTPUT FROM SIRCNO     Keyword = FD+NO 



 --- MACRO ITERATION 11 ---
 --------------------------

 2-el. integral transformation level 3: Total CPU and WALL times (sec)      52.641      52.654

 Fock matrix screening setting for this macro iteration: 10^( -9)

 Total MCSCF energy       :          -434.237125576593996  (MACRO   11)

 - Nuclear repulsion      :           412.135415267066946
 - Inactive energy        :          -844.963941613154702
 - Active energy          :            -1.408599230506255

 Norm of total gradient   :             0.010501610138
 -    of CI gradient      :             0.010263441358
 -    of orbital gradient :             0.002223867576
      Virial theorem: -V/T =      1.991807
@    MULPOP   C       1.89; C   _1  0.63; C   _2  0.63; C   _1  0.99; C   _2  0.99; C       0.27; N       0.07; O   _1 -1.65; O   _2 -1.65; H   _1 -0.43; 
@             H   _2 -0.43; H   _1 -0.43; H   _2 -0.43; H      -0.44; 

 Residual norm when dim(red L) =  11
 NEO root     CSF        orbital          total
    1     0.00000000     0.00006091     0.00006091 converged

 (NEONEX) NEO vector is converged.

   --- OUTPUT FROM SIRCNO     Keyword = FD+NO 



 --- MACRO ITERATION 12 ---
 --------------------------

 2-el. integral transformation level 3: Total CPU and WALL times (sec)      52.734      52.729

 Fock matrix screening setting for this macro iteration: 10^( -9)

 Total MCSCF energy       :          -434.237144840202973  (MACRO   12)

 - Nuclear repulsion      :           412.135415267066946
 - Inactive energy        :          -844.963919275373655
 - Active energy          :            -1.408640831896245

 Norm of total gradient   :             0.000206563687
 -    of CI gradient      :             0.000194510960
 -    of orbital gradient :             0.000069527284
      Virial theorem: -V/T =      1.991582
@    MULPOP   C       1.92; C   _1  0.62; C   _2  0.62; C   _1  0.99; C   _2  0.99; C       0.27; N       0.05; O   _1 -1.65; O   _2 -1.65; H   _1 -0.43; 
@             H   _2 -0.43; H   _1 -0.43; H   _2 -0.43; H      -0.44; 

 Residual norm when dim(red L) =   7
 NEO root     CSF        orbital          total
    1     0.00000000     0.00000567     0.00000567 converged

 (NEONEX) NEO vector is converged.

   --- OUTPUT FROM SIRCNO     Keyword = FD+NO 



 --- MACRO ITERATION 13 ---
 --------------------------

 2-el. integral transformation level 3: Total CPU and WALL times (sec)      52.969      52.990

 Fock matrix screening setting for this macro iteration: 10^( -9)

 Total MCSCF energy       :          -434.237144881990218  (MACRO   13)

 - Nuclear repulsion      :           412.135415267066946
 - Inactive energy        :          -844.964008819927130
 - Active energy          :            -1.408551329130012

 Norm of total gradient   :             0.000006394993
 -    of CI gradient      :             0.000002087604
 -    of orbital gradient :             0.000006044654
      Virial theorem: -V/T =      1.991581
@    MULPOP   C       1.92; C   _1  0.62; C   _2  0.62; C   _1  0.99; C   _2  0.99; C       0.27; N       0.05; O   _1 -1.65; O   _2 -1.65; H   _1 -0.43; 
@             H   _2 -0.43; H   _1 -0.43; H   _2 -0.43; H      -0.44; 

 (SIRSTP) Energy difference;
 actual, predicted and ratio:  -0.000000041787246  -0.000000041746319    1.000980
 Close to convergence, ratio set to one.

 *** Optimization control: MCSCF converged ***
     Number of macro iterations used           13
     Number of micro iterations used           69
     Total number of CPU seconds used      3882.28

 CPU and wall time for MCSCF :    3882.281    3891.196


                     .----------------------------------------.
                     | --- SIRIUS OPTIMIZATION STATISTICS --- |
                     `----------------------------------------'


 
     Date and time (Linux)  : Mon Jun 24 17:22:22 2019
     Host name              : Lab2-333-NPs                            


  ITER ITMIC     EMCSCF           GRDNRM        RATIO      STPLNG
 ---------------------------------------------------------------------
    1    3   -432.255033983643   6.4734981184  0.000000   0.7647821465
    2    3   -434.153756962031   1.4520483537  0.886354   0.1883889899
    3    3   -434.235066584357   0.1565586630  1.014588   0.0264832356
    4    5   -434.235875683392   0.0071595244  0.997616   0.0015665633
    5   16   -434.235878914238   0.0002603773  0.999353   0.6952589897
    6    6   -434.235901681652   0.0130424841  3.054701   0.7381445158
    7    0   -434.235623892358   0.0816307550 -0.949046   0.0000000000
    7    0   -434.235928929571   0.0247377920  0.167081   0.0000000000
    7    5   -434.235971611284   0.0070414735  0.671035   0.3127200491
    8    6   -434.236067765295   0.0059939979  0.903970   0.3834250486
    9    4   -434.236387331446   0.0061300253  0.970686   0.4514588849
   10    4   -434.236965118627   0.0106292776  0.767575   0.3842285777
   11    9   -434.237125576594   0.0105016101  0.763458   0.0676065771
   12    5   -434.237144840203   0.0002065637  1.022257   0.0041537915
   13    0   -434.237144881990   0.0000063950  1.000000   0.0000000000


  ITER  INDGCM  GCIMAX      GCINRM     INDGOM  GOBMAX      GOBNRM      GRDNRM
 ------------------------------------------------------------------------------
    1      1    0.000000    0.000000      2    1.000847    6.473498    6.473498
    2      1   -0.000448    0.000448   1762   -0.376512    1.452048    1.452048
    3      1   -0.000519    0.000519   1092   -0.066704    0.156558    0.156559
    4      1   -0.000519    0.000519   1190    0.001474    0.007141    0.007160
    5      1   -0.000000    0.000000   1386   -0.000049    0.000260    0.000260
    6      1   -0.012914    0.012914   1582    0.000952    0.001827    0.013042
    7      1   -0.081436    0.081442   1680    0.003613    0.005546    0.081631
    7      1   -0.024584    0.024586   1582    0.001902    0.002740    0.024738
    7      1   -0.006859    0.006859   1582    0.001166    0.001592    0.007041
    8      1   -0.004270    0.004270   1484    0.001766    0.004207    0.005994
    9      1   -0.005874    0.005874   2698   -0.000851    0.001752    0.006130
   10      1   -0.010502    0.010505   2698   -0.000787    0.001623    0.010629
   11      1   -0.010261    0.010263      7   -0.000591    0.002224    0.010502
   12      1   -0.000194    0.000195      7   -0.000015    0.000070    0.000207
   13      1   -0.000002    0.000002   1328    0.000001    0.000006    0.000006


  ITER ITMIC NCLIN NOLIN   TIMMAC    TIMITR    TIMMIC    TIMLIN    TIMMIC/ITMIC
 ------------------------------------------------------------------------------

    1     3     0     3    204.94     54.50    120.12     90.98     40.04
    2     3     0     3    204.83     55.36    119.50     90.33     39.83
    3     3     0     3    204.95     55.19    119.78     90.80     39.93
    4     5     1     4    259.08     52.47    176.45    147.67     35.29
    5    16     1    15    602.42     52.45    521.00    491.53     32.56
    6     6     1     6    294.58     52.58    212.69    183.31     35.45
    7     0     0     0    111.61     52.83      0.00      0.00
    7     0     0     0    111.19     52.47      0.00      0.00
    7     5     1     5    274.31     52.88    191.41    159.45     38.28
    8     6     1     6    295.95     54.70    211.27    181.89     35.21
    9     4     1     4    232.61     52.97    150.34    121.02     37.59
   10     4     1     4    232.11     52.70    150.08    120.80     37.52
   11     9     1     9    381.52     52.64    299.69    270.36     33.30
   12     5     1     5    262.47     52.73    180.48    151.14     36.10
   13     0     0     0     82.30     52.97      0.00      0.00


 ITER         EMY                 EACTIV              EMCSCF

    1   -842.730104533109     -1.660344717602   -432.255033983643
    2   -845.178850247232     -1.110321981866   -434.153756962031
    3   -845.314146047338     -1.056335804086   -434.235066584357
    4   -845.316671612616     -1.054619337843   -434.235875683392
    5   -845.316669535821     -1.054624645484   -434.235878914238
    6   -845.334971773395     -1.036345175324   -434.235901681652
    7   -845.271560217910     -1.099478941515   -434.235623892358
    7   -845.305537123415     -1.065807073223   -434.235928929571
    7   -845.319600535051     -1.051786343301   -434.235971611284
    8   -845.271461003883     -1.100022028478   -434.236067765295
    9   -845.138981582674     -1.232821015839   -434.236387331446
   10   -844.991354690270     -1.381025695424   -434.236965118627
   11   -844.963941613155     -1.408599230506   -434.237125576594
   12   -844.963919275374     -1.408640831896   -434.237144840203
   13   -844.964008819927     -1.408551329130   -434.237144881990


 ITER         DEPRED              DEACT               RATIO

    1      0.000000000000      0.000000000000      0.000000000000
    2     -2.142173140183     -1.898722978387      0.886353648438
    3     -0.080140532071     -0.081309622326      1.014588002159
    4     -0.000811032574     -0.000809099035      0.997615954758
    5     -0.000003232937     -0.000003230846      0.999353142414
    6     -0.000007453237     -0.000022767414      3.054701488902
    7     -0.000292703780      0.000277789294     -0.949045804082
    7     -0.000163081975     -0.000027247919      0.167081121851
    7     -0.000104211626     -0.000069929632      0.671034843124
    8     -0.000106368606     -0.000096154010      0.903969824689
    9     -0.000329216651     -0.000319566152      0.970686478033
   10     -0.000752743593     -0.000577787181      0.767575023303
   11     -0.000210172693     -0.000160457967      0.763457727547
   12     -0.000018844195     -0.000019263609      1.022256913802
   13     -0.000000041746     -0.000000041787      1.000000000000


 ITER    BETA           GAMMA             STPLNG              RTRUST

    1      0.39969341  1.00000000      0.764782146516      0.700000000000
    2      0.20000000  1.00000000      0.188388989871      0.700000000000
    3      0.20000000  1.00000000      0.026483235554      0.700000000000
    4      0.20000000  1.00000000      0.001566563283      0.700000000000
    5      6.26230120  1.00000000      0.695258989687      0.700000000000
    6      1.98888869  1.00000000      0.738144515822      0.700000000000
    7      0.00000000  0.00000000      0.000000000000      0.469000000000
    7      0.00000000  0.00000000      0.000000000000      0.313222924251
    7      3.93437079  1.00000000      0.312720049138      0.313222924251
    8      4.22964171  1.00000000      0.383425048595      0.375867509101
    9      2.83526969  1.00000000      0.451458884854      0.451041010921
   10      0.20000000  1.00000000      0.384228577725      0.451041010921
   11      0.20000000  1.00000000      0.067606577078      0.451041010921
   12      0.20000000  1.00000000      0.004153791524      0.649499055726
   13      0.00000000  0.00000000      0.000000000000      0.700000000000


 Reduced L root no.  1
 ITER         EVAL              EVEC(1)           EVEC(2)           EVEC(3)
 ----------------------------------------------------------------------------
    1   -0.625956086085    0.956318738898   -0.231355869093   -0.168195231125
    2   -0.006402153963    0.999290946619   -0.022029620369   -0.024450561806
    3   -0.000064880786    0.999985973060   -0.004725954383   -0.002350308126
    4   -0.000000258635    0.999999950918   -0.000282470566   -0.000117583445
    5   -0.000029292445   -0.223849639120    0.887325178713    0.091913191886
    6   -0.000733907528   -0.562964525703    0.012128341794    0.823787348778
    7    0.000000000000    0.000000000000    0.000000000000    0.000000000000
    7    0.000000000000    0.000000000000    0.000000000000    0.000000000000
    7   -0.001309987693    0.630719980366    0.005455277774   -0.459842086698
    8   -0.003244915252   -0.524858463454   -0.006012825867    0.760333754960
    9   -0.004586928114   -0.615641744210    0.013520525707    0.783931160695
   10   -0.000016715108    0.997060381033    0.000154265712   -0.073166118612
   11   -0.000001507260    0.999908599547   -0.000333789525   -0.011541993940
   12   -0.000000003340    0.999999654920   -0.000001524104   -0.000813313986
   13    0.000000000000    0.000000000000    0.000000000000    0.000000000000


                       .-----------------------------------.
                       | --- Final results from SIRIUS --- |
                       `-----------------------------------'


@    Spin multiplicity:           1
@    Spatial symmetry:            1 ( irrep  A1  in C2v )
@    Total charge of molecule:    0
@    State number:                1

@    Final MCSCF energy:         -434.237144881990                 
@    Nuclear repulsion:           412.135415267067
@    Electronic energy:          -846.372560149057

@    Final gradient norm:           0.000006394993

 
     Date and time (Linux)  : Mon Jun 24 17:22:22 2019
     Host name              : Lab2-333-NPs                            

 Occupancies of natural orbitals
 -------------------------------

 Symmetry 1  ( A1 ) -- Total occupation in this symmetry is  32.000758467

   2.000000000   2.000000000   2.000000000   2.000000000   2.000000000
   2.000000000   2.000000000   2.000000000   2.000000000   2.000000000
   2.000000000   2.000000000   2.000000000   2.000000000   2.000000000
   2.000000000   0.000758467

 Symmetry 2  ( B1 ) -- Total occupation in this symmetry is  22.000000000

   2.000000000   2.000000000   2.000000000   2.000000000   2.000000000
   2.000000000   2.000000000   2.000000000   2.000000000   2.000000000
   2.000000000

 Symmetry 3  ( B2 ) -- Total occupation in this symmetry is   6.000000000

   2.000000000   2.000000000   2.000000000

 Symmetry 4  ( A2 ) -- Total occupation in this symmetry is   3.999241533

   2.000000000   1.999241533

File label for MO orbitals:  24Jun19   (CNOORB)

 (Only coefficients > 0.0100 are printed.)

 Molecular orbitals for symmetry species 1  (A1 )
 ------------------------------------------------

    Orbital         7        8        9       10       11       12       13
   1 C   :1s    -0.0059  -0.0166   0.0158   0.0026  -0.0079  -0.0012  -0.0016
   2 C   :1s     0.0836   0.4350  -0.4073  -0.0408   0.2861   0.1538   0.0051
   3 C   :1s     0.2388  -0.0853  -0.2098   0.1293  -0.0831   0.2735   0.1459
   5 C   :1s     0.1703  -0.6119   0.2483  -0.3148   0.0451   0.2967   1.0483
   6 C   :2pz    0.0574  -0.0589  -0.1076   0.2941  -0.0758  -0.2850  -0.0854
   7 C   :2pz   -0.2446   0.0173   0.1579  -0.1057   0.0134   0.0741  -0.0370
   9 C   :2pz    0.0674   0.1043   0.1148   0.0183  -0.0190   0.0586  -0.1224
  10 C   :3d0    0.0139   0.0062  -0.0137   0.0272  -0.0088  -0.0149  -0.0280
  11 C   :3d2+  -0.0003   0.0126  -0.0076  -0.0126   0.0100   0.0060   0.0149
  12 C   :3d0   -0.1731  -0.0778   0.0775  -0.1083   0.0461  -0.0152  -0.0234
  13 C   :3d2+   0.0778   0.0587  -0.0444   0.0486  -0.0081   0.0048   0.0181
  14 C   :1s    -0.0015  -0.0120   0.0017   0.0106   0.0028   0.0001  -0.0050
  15 C   :1s     0.0130   0.3535  -0.0693  -0.2896  -0.1021  -0.0171   0.1637
  16 C   :1s    -0.0792  -0.1735  -0.0138  -0.0797  -0.0739   0.0493  -0.0241
  18 C   :1s    -0.0573   0.3887   0.0655   0.2731  -0.0567  -0.1256  -0.8792
  19 C   :2px    0.0077   0.0953  -0.0620  -0.0281   0.1673   0.2367  -0.1586
  20 C   :2pz    0.0093  -0.0279  -0.1298   0.0254   0.1781   0.0143   0.2317
  21 C   :2px   -0.0709  -0.0213   0.0780  -0.0355  -0.0812  -0.1176   0.0595
  22 C   :2pz   -0.2318  -0.0157   0.2372  -0.0092   0.0725  -0.1377  -0.2413
  25 C   :2px   -0.0242   0.0621  -0.0442   0.0169  -0.0163  -0.0503  -0.1460
  26 C   :2pz   -0.0385  -0.0334  -0.0879  -0.0269   0.0165  -0.0269   0.0770
  27 C   :3d0    0.0014   0.0049   0.0077   0.0025  -0.0140  -0.0105  -0.0125
  28 C   :3d1+   0.0027   0.0058  -0.0122   0.0008   0.0032   0.0005  -0.0065
  30 C   :3d0    0.0411  -0.0294  -0.0317  -0.0436  -0.0122   0.0377   0.0568
  31 C   :3d1+  -0.0387  -0.0238   0.0421  -0.0583   0.0097  -0.0526   0.0302
  32 C   :3d2+  -0.0105   0.0140   0.0255   0.0208   0.0004  -0.0143  -0.0318
  33 C   :1s    -0.0000  -0.0110  -0.0107  -0.0023   0.0046   0.0048   0.0028
  34 C   :1s     0.0020   0.2973   0.2913   0.0376  -0.1958  -0.1237  -0.1646
  35 C   :1s    -0.1455  -0.0413   0.0170   0.0041   0.0534  -0.1132  -0.1703
  37 C   :1s     0.0550  -0.2453  -0.0346  -0.1451   0.2319   0.2467   0.8621
  38 C   :2px   -0.0003   0.0705   0.0883   0.0863   0.1607   0.1823  -0.1048
  39 C   :2pz   -0.0000   0.0527  -0.0514  -0.1752  -0.1388   0.0267  -0.1000
  40 C   :2px    0.0146  -0.0281  -0.0666  -0.0730  -0.1202  -0.1174   0.0080
  41 C   :2pz   -0.1085   0.0062   0.1737   0.1537   0.1745  -0.1007  -0.0503
  44 C   :2px    0.0233  -0.0341   0.0566   0.0071   0.0579   0.0657   0.1582
  45 C   :2pz   -0.0020  -0.0337  -0.0517  -0.0542  -0.0170  -0.0004   0.0791
  46 C   :3d0   -0.0002   0.0071  -0.0024  -0.0121  -0.0073  -0.0016   0.0065
  47 C   :3d1+   0.0015  -0.0023  -0.0105  -0.0072  -0.0052  -0.0000  -0.0115
  49 C   :3d0   -0.0333   0.0187   0.0461   0.0231   0.0238  -0.0314  -0.0388
  50 C   :3d1+   0.0012  -0.0235   0.0212   0.0038   0.0590   0.0187   0.0351
  51 C   :3d2+   0.0164  -0.0046  -0.0293  -0.0128  -0.0114   0.0173   0.0227
  52 C   :1s    -0.0002  -0.0098  -0.0164  -0.0129  -0.0070  -0.0006  -0.0042
  53 C   :1s     0.0001   0.2874   0.4296   0.3880   0.2913   0.0896   0.1738
  54 C   :1s    -0.0816  -0.0787   0.1044   0.0485   0.1981   0.0013  -0.0568
  56 C   :1s    -0.1029   0.2134  -0.2025  -0.0251  -0.3922  -0.3671  -0.9240
  57 C   :2pz   -0.0001   0.0834   0.0706  -0.0213  -0.0694   0.0700  -0.4043
  58 C   :2pz   -0.0238  -0.0157   0.0829   0.0920   0.1119  -0.0091   0.1648
  60 C   :2pz   -0.0175   0.0523  -0.0021   0.0314  -0.0478  -0.0746  -0.1650
  61 C   :3d0   -0.0006   0.0010  -0.0003  -0.0030   0.0037   0.0046   0.0112
  62 C   :3d2+   0.0008   0.0088   0.0130   0.0107   0.0022  -0.0016  -0.0065
  63 C   :3d0   -0.0022   0.0093  -0.0257  -0.0327  -0.0642  -0.0149  -0.0872
  64 C   :3d2+   0.0068  -0.0067   0.0166   0.0211   0.0323   0.0119   0.0499
  66 N   :1s     0.6789   0.0702  -0.2206   0.4072  -0.3505   0.1341  -0.0061
  67 N   :1s    -0.1427   0.0554  -0.1331   0.1444  -0.0336  -0.0653   0.0077
  69 N   :1s    -0.1579   0.1377  -0.2213   0.1532  -0.0601  -0.1039  -0.1400
  70 N   :2pz    0.1271  -0.1633   0.3020  -0.2630  -0.1737   0.4119   0.2423
  71 N   :2pz   -0.2192   0.0122  -0.0429   0.0325   0.0365  -0.0694  -0.0364
  73 N   :2pz   -0.0360  -0.0976   0.0028  -0.0170   0.0013   0.0274   0.0778
  74 N   :3d0   -0.0027   0.0076  -0.0110   0.0058   0.0001   0.0069   0.0055
  75 N   :3d2+   0.0250  -0.0032   0.0034   0.0002  -0.0039   0.0002  -0.0002
  76 N   :3d0    0.0026   0.0221  -0.0159  -0.0051   0.0338  -0.0356  -0.0196
  77 N   :3d2+  -0.0420  -0.0171  -0.0002   0.0177  -0.0240   0.0147   0.0060
  79 O   :1s     0.4249  -0.1083   0.1976  -0.2709   0.2773  -0.1824  -0.0748
  80 O   :1s     0.0510   0.0125   0.0276  -0.0693   0.0831  -0.0511  -0.0285
  82 O   :1s     0.0831  -0.0057   0.0512  -0.0448   0.0625  -0.0282  -0.0249
  83 O   :2px    0.1430  -0.0199   0.0116   0.0725  -0.2563   0.3044   0.1471
  84 O   :2pz   -0.0682  -0.0238   0.0667  -0.1117   0.0538   0.0881   0.0592
  85 O   :2px    0.0213  -0.0019   0.0170  -0.0316   0.0335  -0.0191  -0.0081
  86 O   :2pz   -0.0050  -0.0039  -0.0150   0.0311  -0.0323   0.0182   0.0105
  89 O   :2px    0.0112   0.0067   0.0073  -0.0022   0.0034  -0.0010  -0.0026
  90 O   :2pz    0.0000   0.0182  -0.0015   0.0004  -0.0068  -0.0004  -0.0067
  92 O   :3d1+  -0.0101  -0.0008   0.0032  -0.0069   0.0063  -0.0023   0.0004
  93 O   :3d2+   0.0107  -0.0016   0.0018   0.0012  -0.0083   0.0101   0.0049
  94 O   :3d0   -0.0048   0.0028  -0.0034   0.0007   0.0075  -0.0141  -0.0054
  96 O   :3d2+   0.0132  -0.0034   0.0056  -0.0027  -0.0064   0.0106   0.0048
  97 H   :1s     0.0063   0.0823  -0.0382  -0.1108  -0.0859  -0.1773   0.3124
  98 H   :1s     0.0301  -0.1096   0.0106  -0.0731  -0.0065   0.0661   0.1036
  99 H   :1s    -0.0004   0.0193   0.0038   0.0109  -0.0007  -0.0166  -0.0351
 100 H   :2px    0.0010   0.0075  -0.0047  -0.0056  -0.0024  -0.0063   0.0124
 102 H   :2px    0.0098  -0.0132   0.0063  -0.0184  -0.0148  -0.0019   0.0413
 103 H   :2pz   -0.0130   0.0171   0.0128   0.0152  -0.0020  -0.0176  -0.0401
 104 H   :1s    -0.0011   0.0664   0.0923   0.0263  -0.1538  -0.2108   0.0296
 105 H   :1s    -0.0383   0.0006  -0.0293   0.0196   0.0011  -0.0352  -0.1622
 106 H   :1s     0.0002  -0.0135   0.0009  -0.0064   0.0117   0.0121   0.0532
 109 H   :2px   -0.0038   0.0035  -0.0085   0.0009  -0.0186  -0.0213  -0.0312
 110 H   :2pz   -0.0080   0.0015   0.0100   0.0132   0.0100  -0.0136  -0.0183
 111 H   :1s    -0.0003   0.0638   0.1388   0.1965   0.2056  -0.0111   0.4633
 112 H   :1s     0.0126  -0.0707   0.0179  -0.0005   0.0680   0.0646   0.0839
 113 H   :1s    -0.0072   0.0133  -0.0139   0.0030  -0.0209  -0.0359  -0.0403
 114 H   :2pz    0.0004   0.0061   0.0106   0.0135   0.0109  -0.0002   0.0196
 115 H   :2pz    0.0058  -0.0139   0.0136   0.0150   0.0279   0.0168   0.0563

    Orbital        14       15       16       17       18       19       20
   2 C   :1s     0.2874   0.0934   0.0594   0.0346  -0.0166  -0.0245   0.0071
   3 C   :1s     0.1474   0.1712   0.1058   0.6108   0.9205   0.5180  -0.6792
   5 C   :1s    -0.6476  -0.1947   0.2690   0.8737   0.7234   4.9654 -24.4899
   6 C   :2pz   -0.1263   0.0238   0.3501   0.0938  -0.0037   0.0172  -0.0041
   7 C   :2pz   -0.0212  -0.0751  -0.2163  -0.4740  -0.1161   0.2211  -0.4665
   9 C   :2pz    0.0784  -0.1321  -0.1256   0.4071  -0.1801  -3.0256   4.7669
  10 C   :3d0   -0.0004  -0.0204   0.0234   0.0200   0.0004   0.0017  -0.0045
  11 C   :3d2+  -0.0015   0.0107  -0.0087   0.0039   0.0022   0.0042  -0.0025
  12 C   :3d0   -0.0095  -0.0460  -0.0335  -0.1560  -0.2544  -0.2075   0.3217
  13 C   :3d2+  -0.0071   0.0263   0.0210   0.1025   0.1964   0.1883  -0.2634
  15 C   :1s    -0.1314  -0.0649   0.0095   0.0082   0.0029   0.0573  -0.0498
  16 C   :1s    -0.0132  -0.0737  -0.0926  -0.1749   0.2686  -0.2642   0.6090
  18 C   :1s     0.8109   0.0501  -0.3667  -0.1237   3.7417  -4.5995  26.0281
  19 C   :2px    0.2399  -0.0841  -0.0975  -0.0173  -0.0092  -0.0267   0.0103
  20 C   :2pz    0.0136   0.3333  -0.1182   0.0014   0.0070   0.0244  -0.0044
  21 C   :2px   -0.0796  -0.0003  -0.0508  -0.2890  -0.2608  -0.1525  -0.5401
  22 C   :2pz    0.0347  -0.1696  -0.0349  -0.2224  -0.5913   0.0010   0.4352
  25 C   :2px    0.1027   0.0634  -0.0433  -0.0759   0.3529  -1.3195   6.5788
  26 C   :2pz   -0.1282   0.0607   0.0764  -0.1870  -1.1676   3.2760  -5.7978
  27 C   :3d0   -0.0047  -0.0104   0.0087   0.0043   0.0020   0.0007  -0.0002
  28 C   :3d1+   0.0251  -0.0037   0.0014   0.0025   0.0009   0.0008  -0.0008
  30 C   :3d0    0.0104   0.0358   0.0208   0.0541   0.1011  -0.1317   0.1023
  31 C   :3d1+  -0.0820  -0.0021   0.0239   0.0014  -0.1859  -0.1624   0.4151
  32 C   :3d2+   0.0008  -0.0195  -0.0134  -0.0415  -0.0014   0.0604  -0.0107
  34 C   :1s     0.1125   0.0435   0.0158  -0.0074   0.0433   0.0326   0.0506
  35 C   :1s    -0.0547  -0.0561  -0.0389  -0.0861  -0.1088  -0.1461  -0.4871
  37 C   :1s    -0.9037  -0.2101   0.3796   0.0515  -2.2428   0.0810 -30.8940
[...]

 GP * SOLUTION vector at frequency     0.00000 a.u.
 after    8 linear transformations is      1.56485412D+03
 INERTIA (POS,ZER,NEG) of reduced matrix is   15    0    1
 Determinant of reduced matrix is -1.58 * 10 ** -8.0

       No.  Residual tot.,    conf., and orb.    Bnorm      Frequency 
      ----------------------------------------------------------------
         1    4.25511D-02  0.00D+00  4.26D-02  4.38D+01    0.00000D+00

 *** THE REQUESTED    1 SOLUTION VECTORS CONVERGED

 Convergence of RSP solution vectors, threshold = 1.00D-03
 ---------------------------------------------------------------
 (dimension of paired reduced space:   16)
 RSP solution vector no.    1; norm of residual   9.71D-04

 *** RSPCTL MICROITERATIONS CONVERGED
    YDIPLEN     ZDIPLEN      freq1     freq2                Norm
 ---------------------------------------------------------------
                          0.000000  0.000000         43.83966414


 Perturbation symmetry.     KSYMOP:       1
 Perturbation spin symmetry.TRPLET:       F
 Orbital variables.         KZWOPT:    2762
 Configuration variables.   KZCONF:       2
 Total number of variables. KZVAR :    2764


 CRLRV2 -- linear response calc for sym:  1
 CRLRV2 -- operator label1: XDIPLEN 
 CRLRV2 -- operator label2: XDIPLEN 
 CRLRV2 -- freqr1 :   0.000000D+00
 CRLRV2 -- freqr2 :   0.000000D+00



 ---  SOLVING SETS OF LINEAR EQUATIONS FOR LINEAR RESPONSE PROPERTIES ---

 Operator symmetry = 1  ( A1 ); triplet =   F


 ** RSPCTL MICROITERATION NUMBER    1

       No.  Residual tot.,    conf., and orb.    Bnorm      Frequency 
      ----------------------------------------------------------------
         1    3.84239D+01  2.74D-14  3.84D+01  6.44D+01    0.00000D+00

 ** RSPCTL MICROITERATION NUMBER    2

       No.  Residual tot.,    conf., and orb.    Bnorm      Frequency 
      ----------------------------------------------------------------
         1    7.55754D+00  2.75D-14  7.56D+00  7.22D+01    0.00000D+00

 ** RSPCTL MICROITERATION NUMBER    3

       No.  Residual tot.,    conf., and orb.    Bnorm      Frequency 
      ----------------------------------------------------------------
         1    4.11941D+00  2.73D-14  4.12D+00  7.20D+01    0.00000D+00

 ** RSPCTL MICROITERATION NUMBER    4

       No.  Residual tot.,    conf., and orb.    Bnorm      Frequency 
      ----------------------------------------------------------------
         1    1.72122D+00  2.72D-14  1.72D+00  7.20D+01    0.00000D+00

 ** RSPCTL MICROITERATION NUMBER    5

       No.  Residual tot.,    conf., and orb.    Bnorm      Frequency 
      ----------------------------------------------------------------
         1    8.99542D-01  2.72D-14  9.00D-01  7.22D+01    0.00000D+00

 ** RSPCTL MICROITERATION NUMBER    6

       No.  Residual tot.,    conf., and orb.    Bnorm      Frequency 
      ----------------------------------------------------------------
         1    3.60609D-01  2.72D-14  3.61D-01  7.22D+01    0.00000D+00

 ** RSPCTL MICROITERATION NUMBER    7

       No.  Residual tot.,    conf., and orb.    Bnorm      Frequency 
      ----------------------------------------------------------------
         1    1.16533D-01  2.72D-14  1.17D-01  7.23D+01    0.00000D+00

 ** RSPCTL MICROITERATION NUMBER    8

       No.  Residual tot.,    conf., and orb.    Bnorm      Frequency 
      ----------------------------------------------------------------
         1    3.65755D-02  2.72D-14  3.66D-02  7.23D+01    0.00000D+00

 *** THE REQUESTED    1 SOLUTION VECTORS CONVERGED

 Convergence of RSP solution vectors, threshold = 1.00D-03
 ---------------------------------------------------------------
 (dimension of paired reduced space:   18)
 RSP solution vector no.    1; norm of residual   5.06D-04

 *** RSPCTL MICROITERATIONS CONVERGED
    XDIPLEN     XDIPLEN      freq1     freq2                Norm
 ---------------------------------------------------------------
                          0.000000  0.000000         72.28676881


 Perturbation symmetry.     KSYMOP:       1
 Perturbation spin symmetry.TRPLET:       F
 Orbital variables.         KZWOPT:    2762
 Configuration variables.   KZCONF:       2
 Total number of variables. KZVAR :    2764


 CRLRV2 -- linear response calc for sym:  1
 CRLRV2 -- operator label1: YDIPLEN 
 CRLRV2 -- operator label2: YDIPLEN 
 CRLRV2 -- freqr1 :   0.000000D+00
 CRLRV2 -- freqr2 :   0.000000D+00



 ---  SOLVING SETS OF LINEAR EQUATIONS FOR LINEAR RESPONSE PROPERTIES ---

 Operator symmetry = 1  ( A1 ); triplet =   F


 ** RSPCTL MICROITERATION NUMBER    1

       No.  Residual tot.,    conf., and orb.    Bnorm      Frequency 
      ----------------------------------------------------------------
         1    1.19274D+01  6.18D-15  1.19D+01  6.26D+01    0.00000D+00

 ** RSPCTL MICROITERATION NUMBER    2

       No.  Residual tot.,    conf., and orb.    Bnorm      Frequency 
      ----------------------------------------------------------------
         1    4.13888D+00  6.11D-15  4.14D+00  6.40D+01    0.00000D+00

 ** RSPCTL MICROITERATION NUMBER    3

       No.  Residual tot.,    conf., and orb.    Bnorm      Frequency 
      ----------------------------------------------------------------
         1    1.22818D+00  6.15D-15  1.23D+00  6.46D+01    0.00000D+00

 ** RSPCTL MICROITERATION NUMBER    4

       No.  Residual tot.,    conf., and orb.    Bnorm      Frequency 
      ----------------------------------------------------------------
         1    4.31333D-01  6.17D-15  4.31D-01  6.47D+01    0.00000D+00

 ** RSPCTL MICROITERATION NUMBER    5

       No.  Residual tot.,    conf., and orb.    Bnorm      Frequency 
      ----------------------------------------------------------------
         1    2.34318D-01  6.16D-15  2.34D-01  6.47D+01    0.00000D+00

 ** RSPCTL MICROITERATION NUMBER    6

       No.  Residual tot.,    conf., and orb.    Bnorm      Frequency 
      ----------------------------------------------------------------
         1    1.14142D-01  6.17D-15  1.14D-01  6.48D+01    0.00000D+00

 ** RSPCTL MICROITERATION NUMBER    7

       No.  Residual tot.,    conf., and orb.    Bnorm      Frequency 
      ----------------------------------------------------------------
         1    4.66404D-02  6.17D-15  4.66D-02  6.48D+01    0.00000D+00

 *** THE REQUESTED    1 SOLUTION VECTORS CONVERGED

 Convergence of RSP solution vectors, threshold = 1.00D-03
 ---------------------------------------------------------------
 (dimension of paired reduced space:   16)
 RSP solution vector no.    1; norm of residual   7.20D-04

 *** RSPCTL MICROITERATIONS CONVERGED
    YDIPLEN     YDIPLEN      freq1     freq2                Norm
 ---------------------------------------------------------------
                          0.000000  0.000000         64.77703932


 Perturbation symmetry.     KSYMOP:       4
 Perturbation spin symmetry.TRPLET:       F
 Orbital variables.         KZWOPT:    1492
 Configuration variables.   KZCONF:       2
 Total number of variables. KZVAR :    1494


 CRLRV2 -- linear response calc for sym:  4
 CRLRV2 -- operator label1: YDIPLEN 
 CRLRV2 -- operator label2: XDIPLEN 
 CRLRV2 -- freqr1 :   0.000000D+00
 CRLRV2 -- freqr2 :   0.000000D+00



 ---  SOLVING SETS OF LINEAR EQUATIONS FOR LINEAR RESPONSE PROPERTIES ---

 Operator symmetry = 4  ( A2 ); triplet =   F


 ** RSPCTL MICROITERATION NUMBER    1

       No.  Residual tot.,    conf., and orb.    Bnorm      Frequency 
      ----------------------------------------------------------------
         1    6.08272D+00  1.57D-16  6.08D+00  4.63D+01    0.00000D+00

 ** RSPCTL MICROITERATION NUMBER    2

       No.  Residual tot.,    conf., and orb.    Bnorm      Frequency 
      ----------------------------------------------------------------
         1    2.41343D+00  1.11D-16  2.41D+00  4.80D+01    0.00000D+00

 ** RSPCTL MICROITERATION NUMBER    3

       No.  Residual tot.,    conf., and orb.    Bnorm      Frequency 
      ----------------------------------------------------------------
         1    7.66786D-01  3.33D-16  7.67D-01  4.83D+01    0.00000D+00

 ** RSPCTL MICROITERATION NUMBER    4

       No.  Residual tot.,    conf., and orb.    Bnorm      Frequency 
      ----------------------------------------------------------------
         1    3.68657D-01  4.78D-16  3.69D-01  4.87D+01    0.00000D+00

 ** RSPCTL MICROITERATION NUMBER    5

 *** INFO, negative eigenvalues in reduced matrix. Symmetry  4,  triplet       F Dimension of reduced matrix =    12

 GP * SOLUTION vector at frequency     0.00000 a.u.
 after    6 linear transformations is      1.72811933D+03
 INERTIA (POS,ZER,NEG) of reduced matrix is   11    0    1
 Determinant of reduced matrix is -1.75 * 10 ** -5.0

       No.  Residual tot.,    conf., and orb.    Bnorm      Frequency 
      ----------------------------------------------------------------
         1    1.19148D+00  3.93D-16  1.19D+00  5.01D+01    0.00000D+00

 ** RSPCTL MICROITERATION NUMBER    6

 *** INFO, negative eigenvalues in reduced matrix. Symmetry  4,  triplet       F Dimension of reduced matrix =    14

 GP * SOLUTION vector at frequency     0.00000 a.u.
 after    7 linear transformations is      1.72837532D+03
 INERTIA (POS,ZER,NEG) of reduced matrix is   13    0    1
 Determinant of reduced matrix is -1.32 * 10 ** -6.0

       No.  Residual tot.,    conf., and orb.    Bnorm      Frequency 
      ----------------------------------------------------------------
         1    2.11631D-01  3.93D-16  2.12D-01  4.85D+01    0.00000D+00

 ** RSPCTL MICROITERATION NUMBER    7

 *** INFO, negative eigenvalues in reduced matrix. Symmetry  4,  triplet       F Dimension of reduced matrix =    16

 GP * SOLUTION vector at frequency     0.00000 a.u.
 after    8 linear transformations is      1.72841092D+03
 INERTIA (POS,ZER,NEG) of reduced matrix is   15    0    1
 Determinant of reduced matrix is -4.09 * 10 ** -8.0

       No.  Residual tot.,    conf., and orb.    Bnorm      Frequency 
      ----------------------------------------------------------------
         1    1.50901D-01  2.83D-16  1.51D-01  4.90D+01    0.00000D+00

 ** RSPCTL MICROITERATION NUMBER    8

 *** INFO, negative eigenvalues in reduced matrix. Symmetry  4,  triplet       F Dimension of reduced matrix =    18

 GP * SOLUTION vector at frequency     0.00000 a.u.
 after    9 linear transformations is      1.72850018D+03
 INERTIA (POS,ZER,NEG) of reduced matrix is   17    0    1
 Determinant of reduced matrix is -3.47 * 10 **-10.0

       No.  Residual tot.,    conf., and orb.    Bnorm      Frequency 
      ----------------------------------------------------------------
         1    6.79582D-01  1.57D-16  6.80D-01  5.70D+01    0.00000D+00

 ** RSPCTL MICROITERATION NUMBER    9

 *** INFO, negative eigenvalues in reduced matrix. Symmetry  4,  triplet       F Dimension of reduced matrix =    20

 GP * SOLUTION vector at frequency     0.00000 a.u.
 after   10 linear transformations is      1.72450060D+03
 INERTIA (POS,ZER,NEG) of reduced matrix is   18    0    2
 Determinant of reduced matrix is  4.74 * 10 **-13.0

       No.  Residual tot.,    conf., and orb.    Bnorm      Frequency 
      ----------------------------------------------------------------
         1    6.87777D+00  1.76D-14  6.88D+00  1.02D+03    0.00000D+00

 ** RSPCTL MICROITERATION NUMBER   10

 *** INFO, negative eigenvalues in reduced matrix. Symmetry  4,  triplet       F Dimension of reduced matrix =    22

 GP * SOLUTION vector at frequency     0.00000 a.u.
 after   11 linear transformations is      1.72719630D+03
 INERTIA (POS,ZER,NEG) of reduced matrix is   20    0    2
 Determinant of reduced matrix is  1.52 * 10 **-14.0

       No.  Residual tot.,    conf., and orb.    Bnorm      Frequency 
      ----------------------------------------------------------------
         1    5.75185D-01  3.09D-15  5.75D-01  3.17D+02    0.00000D+00

 ** RSPCTL MICROITERATION NUMBER   11

 *** INFO, negative eigenvalues in reduced matrix. Symmetry  4,  triplet       F Dimension of reduced matrix =    24

 GP * SOLUTION vector at frequency     0.00000 a.u.
 after   12 linear transformations is      1.72734863D+03
 INERTIA (POS,ZER,NEG) of reduced matrix is   22    0    2
 Determinant of reduced matrix is  1.20 * 10 **-16.0

       No.  Residual tot.,    conf., and orb.    Bnorm      Frequency 
      ----------------------------------------------------------------
         1    3.87176D-01  4.33D-15  3.87D-01  2.78D+02    0.00000D+00

 ** RSPCTL MICROITERATION NUMBER   12

 *** INFO, negative eigenvalues in reduced matrix. Symmetry  4,  triplet       F Dimension of reduced matrix =    26

 GP * SOLUTION vector at frequency     0.00000 a.u.
 after   13 linear transformations is      1.72739895D+03
 INERTIA (POS,ZER,NEG) of reduced matrix is   24    0    2
 Determinant of reduced matrix is  6.24 * 10 **-19.0

       No.  Residual tot.,    conf., and orb.    Bnorm      Frequency 
      ----------------------------------------------------------------
         1    2.39533D-01  2.37D-15  2.40D-01  2.65D+02    0.00000D+00

 *** THE REQUESTED    1 SOLUTION VECTORS CONVERGED

 Convergence of RSP solution vectors, threshold = 1.00D-03
 ---------------------------------------------------------------
 (dimension of paired reduced space:   26)
 RSP solution vector no.    1; norm of residual   9.03D-04

 *** RSPCTL MICROITERATIONS CONVERGED
    YDIPLEN     XDIPLEN      freq1     freq2                Norm
 ---------------------------------------------------------------
                          0.000000  0.000000        265.29848035
  Time used in CRVEC2     is     39 minutes 42 seconds


 ----- CALCULATING CONTRIBUTIONS TO SECOND HYPERPOLARIZABILITY -----


   Contribution                Term         Accumulated
 ------------------------------------------------------
 Na T[4] Nb Nc Nd    -9362.85537323      -9362.85537323
 Na T[3] Nx Nyz      10077.54155534        714.68618211
 Na X[3] Ny Nz       16377.50937567      17092.19555778
 Nx A[3] Ny Nz        5459.16979189      22551.36534967
 Na X[2] Nyz        -24216.65755222      -1665.29220255
 Nx A[2] Nyz        -24183.31056805     -25848.60277060

@ Cubic response function value in a.u. for
@ A operator, symmetry, frequency:   ZDIPLEN    1 -0.000000
@ B operator, symmetry, frequency:   ZDIPLEN    1  0.000000
@ C operator, symmetry, frequency:   ZDIPLEN    1  0.000000
@ D operator, symmetry, frequency:   ZDIPLEN    1  0.000000

@ << A; B, C, D >>  =      -25848.60277060



   Contribution                Term         Accumulated
 ------------------------------------------------------
 Na T[4] Nb Nc Nd    -2026.06699775      -2026.06699775
 Na T[3] Nx Nyz        725.66543867      -1300.40155909
 Na X[3] Ny Nz        3362.23256852       2061.83100943
 Nx A[3] Ny Nz        1358.79928335       3420.63029278
 Na X[2] Nyz         -2499.85434716        920.77594562
 Nx A[2] Nyz         -2595.41404461      -1674.63809899

@ Cubic response function value in a.u. for
@ A operator, symmetry, frequency:   XDIPLEN    2 -0.000000
@ B operator, symmetry, frequency:   XDIPLEN    2  0.000000
@ C operator, symmetry, frequency:   ZDIPLEN    1  0.000000
@ D operator, symmetry, frequency:   ZDIPLEN    1  0.000000

@ << A; B, C, D >>  =       -1674.63809899



   Contribution                Term         Accumulated
 ------------------------------------------------------
 Na T[4] Nb Nc Nd     -644.24570886       -644.24570886
 Na T[3] Nx Nyz        865.09061297        220.84490411
 Na X[3] Ny Nz        1180.29904115       1401.14394526
 Nx A[3] Ny Nz         554.63722169       1955.78116695
 Na X[2] Nyz         -2228.03477342       -272.25360647
 Nx A[2] Nyz         -2771.16198418      -3043.41559065

@ Cubic response function value in a.u. for
@ A operator, symmetry, frequency:   YDIPLEN    3 -0.000000
@ B operator, symmetry, frequency:   YDIPLEN    3  0.000000
@ C operator, symmetry, frequency:   ZDIPLEN    1  0.000000
@ D operator, symmetry, frequency:   ZDIPLEN    1  0.000000

@ << A; B, C, D >>  =       -3043.41559065



   Contribution                Term         Accumulated
 ------------------------------------------------------
 Na T[4] Nb Nc Nd    -4053.04144551      -4053.04144551
 Na T[3] Nx Nyz       3096.04112705       -957.00031847
 Na X[3] Ny Nz        7381.88901667       6424.88869821
 Nx A[3] Ny Nz        2460.62967222       8885.51837043
 Na X[2] Nyz         -8163.13197961        722.38639082
 Nx A[2] Nyz         -8126.30965690      -7403.92326607

@ Cubic response function value in a.u. for
@ A operator, symmetry, frequency:   XDIPLEN    2 -0.000000
@ B operator, symmetry, frequency:   XDIPLEN    2  0.000000
@ C operator, symmetry, frequency:   XDIPLEN    2  0.000000
@ D operator, symmetry, frequency:   XDIPLEN    2  0.000000

@ << A; B, C, D >>  =       -7403.92326607



   Contribution                Term         Accumulated
 ------------------------------------------------------
 Na T[4] Nb Nc Nd     -574.38969034       -574.38969034
 Na T[3] Nx Nyz        908.28712492        333.89743458
 Na X[3] Ny Nz        1005.70748774       1339.60492233
 Nx A[3] Ny Nz         419.41986212       1759.02478445
 Na X[2] Nyz         -2666.56786319       -907.54307874
 Nx A[2] Nyz         -3169.41443515      -4076.95751389

@ Cubic response function value in a.u. for
@ A operator, symmetry, frequency:   YDIPLEN    3 -0.000000
@ B operator, symmetry, frequency:   YDIPLEN    3  0.000000
@ C operator, symmetry, frequency:   XDIPLEN    2  0.000000
@ D operator, symmetry, frequency:   XDIPLEN    2  0.000000

@ << A; B, C, D >>  =       -4076.95751389



   Contribution                Term         Accumulated
 ------------------------------------------------------
 Na T[4] Nb Nc Nd     -536.29693715       -536.29693715
 Na T[3] Nx Nyz       2046.05035003       1509.75341289
 Na X[3] Ny Nz        1421.34126403       2931.09467692
 Nx A[3] Ny Nz         473.78042134       3404.87509826
 Na X[2] Nyz         -5891.08619505      -2486.21109679
 Nx A[2] Nyz         -5895.40975631      -8381.62085310

@ Cubic response function value in a.u. for
@ A operator, symmetry, frequency:   YDIPLEN    3 -0.000000
@ B operator, symmetry, frequency:   YDIPLEN    3  0.000000
@ C operator, symmetry, frequency:   YDIPLEN    3  0.000000
@ D operator, symmetry, frequency:   YDIPLEN    3  0.000000

@ << A; B, C, D >>  =       -8381.62085310



  Summary of gamma values for a set of frequencies
 -------------------------------------------------

@ B-freq:  0.000000
@ C-freq:  0.000000
@ D-freq:  0.000000

@ gamma(X;X,X,X)       7403.9233
@ gamma(X;X,Y,Y)       4076.9575
@ gamma(X;Y,Y,X)       4076.9575
@ gamma(X;Y,X,Y)       4076.9575
@ gamma(X;X,Z,Z)       1674.6381
@ gamma(X;Z,Z,X)       1674.6381
@ gamma(X;Z,X,Z)       1674.6381
@ gamma(Y;Y,X,X)       4076.9575
@ gamma(Y;X,X,Y)       4076.9575
@ gamma(Y;X,Y,X)       4076.9575
@ gamma(Y;Y,Y,Y)       8381.6209
@ gamma(Y;Y,Z,Z)       3043.4156
@ gamma(Y;Z,Z,Y)       3043.4156
@ gamma(Y;Z,Y,Z)       3043.4156
@ gamma(Z;Z,X,X)       1674.6381
@ gamma(Z;X,X,Z)       1674.6381
@ gamma(Z;X,Z,X)       1674.6381
@ gamma(Z;Z,Y,Y)       3043.4156
@ gamma(Z;Y,Y,Z)       3043.4156
@ gamma(Z;Y,Z,Y)       3043.4156
@ gamma(Z;Z,Z,Z)      25848.6028

@ Averaged gamma parallel to the applied field is     11844.833859

  Total CPU  time used in RESPONSE:   2 hours  1 minute  28 seconds
  Total wall time used in RESPONSE:   2 hours  1 minute  33 seconds


                   .-------------------------------------------.
                   | End of Dynamic Property Section (RESPONS) |
                   `-------------------------------------------'

  Total CPU  time used in DALTON:   3 hours  6 minutes 11 seconds
  Total wall time used in DALTON:   3 hours  6 minutes 25 seconds

 
     Date and time (Linux)  : Mon Jun 24 19:23:55 2019
     Host name              : Lab2-333-NPs                            
