

     ************************************************************************
     *************** Dalton - An Electronic Structure Program ***************
     ************************************************************************

    This is output from DALTON release Dalton2018.1 (2019)
         ( Web site: http://daltonprogram.org )

   ----------------------------------------------------------------------------

    NOTE:
     
    Dalton is an experimental code for the evaluation of molecular
    properties using (MC)SCF, DFT, CI, and CC wave functions.
    The authors accept no responsibility for the performance of
    the code or for the correctness of the results.
     
    The code (in whole or part) is provided under a licence and
    is not to be reproduced for further distribution without
    the written permission of the authors or their representatives.
     
    See the home page "http://daltonprogram.org" for further information.
     
    If results obtained with this code are published,
    the appropriate citations would be both of:
     
       K. Aidas, C. Angeli, K. L. Bak, V. Bakken, R. Bast,
       L. Boman, O. Christiansen, R. Cimiraglia, S. Coriani,
       P. Dahle, E. K. Dalskov, U. Ekstroem,
       T. Enevoldsen, J. J. Eriksen, P. Ettenhuber, B. Fernandez,
       L. Ferrighi, H. Fliegl, L. Frediani, K. Hald, A. Halkier,
       C. Haettig, H. Heiberg, T. Helgaker, A. C. Hennum,
       H. Hettema, E. Hjertenaes, S. Hoest, I.-M. Hoeyvik,
       M. F. Iozzi, B. Jansik, H. J. Aa. Jensen, D. Jonsson,
       P. Joergensen, J. Kauczor, S. Kirpekar,
       T. Kjaergaard, W. Klopper, S. Knecht, R. Kobayashi, H. Koch,
       J. Kongsted, A. Krapp, K. Kristensen, A. Ligabue,
       O. B. Lutnaes, J. I. Melo, K. V. Mikkelsen, R. H. Myhre,
       C. Neiss, C. B. Nielsen, P. Norman, J. Olsen,
       J. M. H. Olsen, A. Osted, M. J. Packer, F. Pawlowski,
       T. B. Pedersen, P. F. Provasi, S. Reine, Z. Rinkevicius,
       T. A. Ruden, K. Ruud, V. Rybkin, P. Salek, C. C. M. Samson,
       A. Sanchez de Meras, T. Saue, S. P. A. Sauer,
       B. Schimmelpfennig, K. Sneskov, A. H. Steindal,
       K. O. Sylvester-Hvid, P. R. Taylor, A. M. Teale,
       E. I. Tellgren, D. P. Tew, A. J. Thorvaldsen, L. Thoegersen,
       O. Vahtras, M. A. Watson, D. J. D. Wilson, M. Ziolkowski
       and H. Agren,
       "The Dalton quantum chemistry program system",
       WIREs Comput. Mol. Sci. 2014, 4:269–284 (doi: 10.1002/wcms.1172)
     
    and
     
       Dalton, a molecular electronic structure program,
       Release Dalton2018.1 (2019), see http://daltonprogram.org
   ----------------------------------------------------------------------------

    Authors in alphabetical order (major contribution(s) in parenthesis):

  Kestutis Aidas,           Vilnius University,           Lithuania   (QM/MM)
  Celestino Angeli,         University of Ferrara,        Italy       (NEVPT2)
  Keld L. Bak,              UNI-C,                        Denmark     (AOSOPPA, non-adiabatic coupling, magnetic properties)
  Vebjoern Bakken,          University of Oslo,           Norway      (DALTON; geometry optimizer, symmetry detection)
  Radovan Bast,             UiT The Arctic U. of Norway,  Norway      (DALTON installation and execution frameworks)
  Pablo Baudin,             University of Valencia,       Spain       (Cholesky excitation energies)
  Linus Boman,              NTNU,                         Norway      (Cholesky decomposition and subsystems)
  Ove Christiansen,         Aarhus University,            Denmark     (CC module)
  Renzo Cimiraglia,         University of Ferrara,        Italy       (NEVPT2)
  Sonia Coriani,            Technical Univ. of Denmark,   Denmark     (CC module, MCD in RESPONS)
  Janusz Cukras,            University of Trieste,        Italy       (MChD in RESPONS)
  Paal Dahle,               University of Oslo,           Norway      (Parallelization)
  Erik K. Dalskov,          UNI-C,                        Denmark     (SOPPA)
  Thomas Enevoldsen,        Univ. of Southern Denmark,    Denmark     (SOPPA)
  Janus J. Eriksen,         Aarhus University,            Denmark     (Polarizable embedding model, TDA)
  Rasmus Faber,             University of Copenhagen,     Denmark     (Vib.avg. NMR with SOPPA, parallel AO-SOPPA)
  Tobias Fahleson,          KTH Stockholm,                Sweden      (Damped cubic response)
  Berta Fernandez,          U. of Santiago de Compostela, Spain       (doublet spin, ESR in RESPONS)
  Lara Ferrighi,            Aarhus University,            Denmark     (PCM Cubic response)
  Heike Fliegl,             University of Oslo,           Norway      (CCSD(R12))
  Luca Frediani,            UiT The Arctic U. of Norway,  Norway      (PCM)
  Bin Gao,                  UiT The Arctic U. of Norway,  Norway      (Gen1Int library)
  Christof Haettig,         Ruhr-University Bochum,       Germany     (CC module)
  Kasper Hald,              Aarhus University,            Denmark     (CC module)
  Asger Halkier,            Aarhus University,            Denmark     (CC module)
  Frederik Beyer Hansen,    University of Copenhagen,     Denmark     (Parallel AO-SOPPA)
  Erik D. Hedegaard,        Univ. of Southern Denmark,    Denmark     (Polarizable embedding model, QM/MM)
  Hanne Heiberg,            University of Oslo,           Norway      (geometry analysis, selected one-electron integrals)
  Trygve Helgaker,          University of Oslo,           Norway      (DALTON; ABACUS, ERI, DFT modules, London, and much more)
  Alf Christian Hennum,     University of Oslo,           Norway      (Parity violation)
  Hinne Hettema,            University of Auckland,       New Zealand (quadratic response in RESPONS; SIRIUS supersymmetry)
  Eirik Hjertenaes,         NTNU,                         Norway      (Cholesky decomposition)
  Pi A. B. Haase,           University of Copenhagen,     Denmark     (Triplet AO-SOPPA)
  Maria Francesca Iozzi,    University of Oslo,           Norway      (RPA)
  Christoph Jacob           TU Braunschweig               Germany     (Frozen density embedding model)
  Brano Jansik              Technical Univ. of Ostrava    Czech Rep.  (DFT cubic response)
  Hans Joergen Aa. Jensen,  Univ. of Southern Denmark,    Denmark     (DALTON; SIRIUS, RESPONS, ABACUS modules, London, and much more)
  Dan Jonsson,              UiT The Arctic U. of Norway,  Norway      (cubic response in RESPONS module)
  Poul Joergensen,          Aarhus University,            Denmark     (RESPONS, ABACUS, and CC modules)
  Maciej Kaminski,          University of Warsaw,         Poland      (CPPh in RESPONS)
  Joanna Kauczor,           Linkoeping University,        Sweden      (Complex polarization propagator (CPP) module)
  Sheela Kirpekar,          Univ. of Southern Denmark,    Denmark     (Mass-velocity & Darwin integrals)
  Wim Klopper,              KIT Karlsruhe,                Germany     (R12 code in CC, SIRIUS, and ABACUS modules)
  Stefan Knecht,            ETH Zurich,                   Switzerland (Parallel CI and MCSCF)
  Rika Kobayashi,           Australian National Univ.,    Australia   (DIIS in CC, London in MCSCF)
  Henrik Koch,              NTNU,                         Norway      (CC module, Cholesky decomposition)
  Jacob Kongsted,           Univ. of Southern Denmark,    Denmark     (Polarizable embedding model, QM/MM)
  Andrea Ligabue,           University of Modena,         Italy       (CTOCD, AOSOPPA)
  Nanna H. List             Univ. of Southern Denmark,    Denmark     (Polarizable embedding model)
  Ola B. Lutnaes,           University of Oslo,           Norway      (DFT Hessian)
  Juan I. Melo,             University of Buenos Aires,   Argentina   (LRESC, Relativistic Effects on NMR Shieldings)
  Kurt V. Mikkelsen,        University of Copenhagen,     Denmark     (MC-SCRF and QM/MM)
  Rolf H. Myhre,            NTNU,                         Norway      (Subsystems and CC3)
  Christian Neiss,          Univ. Erlangen-Nuernberg,     Germany     (CCSD(R12))
  Christian B. Nielsen,     University of Copenhagen,     Denmark     (QM/MM)
  Patrick Norman,           KTH Stockholm,                Sweden      (Cubic response and complex frequency response in RESPONS)
  Jeppe Olsen,              Aarhus University,            Denmark     (SIRIUS CI/density modules)
  Jogvan Magnus H. Olsen,   Univ. of Southern Denmark,    Denmark     (Polarizable embedding model, QM/MM)
  Anders Osted,             Copenhagen University,        Denmark     (QM/MM)
  Martin J. Packer,         University of Sheffield,      UK          (SOPPA)
  Filip Pawlowski,          Kazimierz Wielki University,  Poland      (CC3)
  Morten N. Pedersen,       Univ. of Southern Denmark,    Denmark     (Polarizable embedding model)
  Thomas B. Pedersen,       University of Oslo,           Norway      (Cholesky decomposition)
  Patricio F. Provasi,      University of Northeastern,   Argentina   (Analysis of coupling constants in localized orbitals)
  Zilvinas Rinkevicius,     KTH Stockholm,                Sweden      (open-shell DFT, ESR)
  Elias Rudberg,            KTH Stockholm,                Sweden      (DFT grid and basis info)
  Torgeir A. Ruden,         University of Oslo,           Norway      (Numerical derivatives in ABACUS)
  Kenneth Ruud,             UiT The Arctic U. of Norway,  Norway      (DALTON; ABACUS magnetic properties and much more)
  Pawel Salek,              KTH Stockholm,                Sweden      (DALTON; DFT code)
  Claire C. M. Samson       University of Karlsruhe       Germany     (Boys localization, r12 integrals in ERI)
  Alfredo Sanchez de Meras, University of Valencia,       Spain       (CC module, Cholesky decomposition)
  Trond Saue,               Paul Sabatier University,     France      (direct Fock matrix construction)
  Stephan P. A. Sauer,      University of Copenhagen,     Denmark     (SOPPA(CCSD), SOPPA prop., AOSOPPA, vibrational g-factors)
  Andre S. P. Gomes,        CNRS/Universite de Lille,     France      (Frozen density embedding model)
  Bernd Schimmelpfennig,    Forschungszentrum Karlsruhe,  Germany     (AMFI module)
  Kristian Sneskov,         Aarhus University,            Denmark     (Polarizable embedding model, QM/MM)
  Arnfinn H. Steindal,      UiT The Arctic U. of Norway,  Norway      (parallel QM/MM, Polarizable embedding model)
  Casper Steinmann,         Univ. of Southern Denmark,    Denmark     (QFIT, Polarizable embedding model)
  K. O. Sylvester-Hvid,     University of Copenhagen,     Denmark     (MC-SCRF)
  Peter R. Taylor,          VLSCI/Univ. of Melbourne,     Australia   (Symmetry handling ABACUS, integral transformation)
  Andrew M. Teale,          University of Nottingham,     England     (DFT-AC, DFT-D)
  David P. Tew,             University of Bristol,        England     (CCSD(R12))
  Olav Vahtras,             KTH Stockholm,                Sweden      (triplet response, spin-orbit, ESR, TDDFT, open-shell DFT)
  Lucas Visscher,           Vrije Universiteit Amsterdam, Netherlands (Frozen density embedding model)
  David J. Wilson,          La Trobe University,          Australia   (DFT Hessian and DFT magnetizabilities)
  Hans Agren,               KTH Stockholm,                Sweden      (SIRIUS module, RESPONS, MC-SCRF solvation model)
 --------------------------------------------------------------------------------

     Date and time (Linux)  : Tue Jun 18 11:51:29 2019
     Host name              : Lab2-333-NPs                            

 * Work memory size             :  2048000000 = 15.259 gigabytes.

 * Directories for basis set searches:
   1) /home/lab333/dalton/build_2018_atlas
   2) /home/lab333/dalton/build_2018_atlas/basis


Compilation information
-----------------------

 Who compiled             | lab333
 Host                     | Lab2-333-NPs
 System                   | Linux-4.4.0-43-Microsoft
 CMake generator          | Unix Makefiles
 Processor                | x86_64
 64-bit integers          | OFF
 MPI                      | OFF
 Fortran compiler         | /usr/bin/gfortran
 Fortran compiler version | GNU Fortran (Ubuntu 7.3.0-27ubuntu1~18.04) 7.3.0
 C compiler               | /usr/bin/gcc
 C compiler version       | gcc (Ubuntu 7.3.0-27ubuntu1~18.04) 7.3.0
 C++ compiler             | /usr/bin/g++
 C++ compiler version     | g++ (Ubuntu 7.3.0-27ubuntu1~18.04) 7.3.0
 BLAS                     | /usr/lib/x86_64-linux-gnu/libf77blas.so;/usr/lib/x
                          | 86_64-linux-gnu/libcblas.so;/usr/lib/x86_64-linux-
                          | gnu/libatlas.so
 LAPACK                   | /usr/lib/x86_64-linux-gnu/libatlas.so;/usr/lib/x86
                          | _64-linux-gnu/atlas/liblapack.so
 Static linking           | OFF
 Last Git revision        | da625bf48c74028e805616daee31bc5d76b3a20d
 Git branch               | (HEAD detached at Dalton2018.1)
 Configuration time       | 2019-01-18 10:20:51.437510


   Content of the .dal input file
 ----------------------------------

**DALTON INPUT
.RUN RESPONSE
.DIRECT
**WAVE FUNCTIONS
.MCSCF
*CONFIGURATION INPUT
.SPIN MULTIPLICITY
1
.SYMMETRY
1
.INACTIVE ORBITALS
15 10 2 0
.CAS SPACE
3 2 2 2
.ELECTRONS
10
*ORBITAL INPUT
.MOSTART
.HUCKEL
**RESPONSE
*CUBIC
.DIPLEN
**END OF DALTON INPUT


   Content of the .mol file
 ----------------------------

BASIS
aug-cc-pCVDZ
 nitrobenzene
 Generated by the Dalton Input File Plugin for Avogadro
Atomtypes=4 Angstrom Generators=2 X Y
Charge=6.0 Atoms=4
C        0.0000000000            0.0000000000           -0.0265759623
C       -1.2190534920            0.0000000000           -0.6979856948
C       -1.2105095870            0.0000000000           -2.0897394457
C        0.0000000000            0.0000000000           -2.7841484631
Charge=7.0 Atoms=1
N        0.0000000000            0.0000000000            1.4549291696
Charge=8.0 Atoms=1
O       -1.0847503743            0.0000000000            2.0235779798
Charge=1.0 Atoms=3
H       -2.1410602955            0.0000000000           -0.1327964319
H       -2.1492827751            0.0000000000           -2.6311811056
H        0.0000000000            0.0000000000           -3.8683953478


       *******************************************************************
       *********** Output from DALTON general input processing ***********
       *******************************************************************

 --------------------------------------------------------------------------------
   Overall default print level:    0
   Print level for DALTON.STAT:    1

    AO-direct calculation (in sections where implemented)
    HERMIT 1- and 2-electron integral sections will be executed
    "Old" integral transformation used (limited to max 255 basis functions)
    Wave function sections will be executed (SIRIUS module)
    Dynamic molecular response properties section will be executed (RESPONSE module)
 --------------------------------------------------------------------------------


   ****************************************************************************
   *************** Output of molecule and basis set information ***************
   ****************************************************************************


    The two title cards from your ".mol" input:
    ------------------------------------------------------------------------
 1:  nitrobenzene                                                           
 2:  Generated by the Dalton Input File Plugin for Avogadro                 
    ------------------------------------------------------------------------

  Coordinates are entered in Angstrom and converted to atomic units.
          - Conversion factor : 1 bohr = 0.52917721 A

  Atomic type no.    1
  --------------------
  Nuclear charge:   6.00000
  Number of symmetry independent centers:    4
  Number of basis sets to read;    2
  Basis set file used for this atomic type with Z =   6 :
     "/home/lab333/dalton/build_2018_atlas/basis/aug-cc-pCVDZ"

  Atomic type no.    2
  --------------------
  Nuclear charge:   7.00000
  Number of symmetry independent centers:    1
  Number of basis sets to read;    2
  Basis set file used for this atomic type with Z =   7 :
     "/home/lab333/dalton/build_2018_atlas/basis/aug-cc-pCVDZ"

  Atomic type no.    3
  --------------------
  Nuclear charge:   8.00000
  Number of symmetry independent centers:    1
  Number of basis sets to read;    2
  Basis set file used for this atomic type with Z =   8 :
     "/home/lab333/dalton/build_2018_atlas/basis/aug-cc-pCVDZ"

  Atomic type no.    4
  --------------------
  Nuclear charge:   1.00000
  Number of symmetry independent centers:    3
  Number of basis sets to read;    2
  Basis set file used for this atomic type with Z =   1 :
     "/home/lab333/dalton/build_2018_atlas/basis/aug-cc-pCVDZ"


                         SYMGRP: Point group information
                         -------------------------------

@    Point group: C2v

@  * The irrep name for each symmetry:    1: A1     2: B1     3: B2     4: A2 

   * The point group was generated by:

      Reflection in the yz-plane
      Reflection in the xz-plane

   * Group multiplication table

        |  E   C2z  Oxz  Oyz
   -----+--------------------
     E  |  E   C2z  Oxz  Oyz
    C2z | C2z   E   Oyz  Oxz
    Oxz | Oxz  Oyz   E   C2z
    Oyz | Oyz  Oxz  C2z   E 

   * Character table

        |  E   C2z  Oxz  Oyz
   -----+--------------------
    A1  |   1    1    1    1
    B1  |   1   -1    1   -1
    B2  |   1   -1   -1    1
    A2  |   1    1   -1   -1

   * Direct product table

        | A1   B1   B2   A2 
   -----+--------------------
    A1  | A1   B1   B2   A2 
    B1  | B1   A1   A2   B2 
    B2  | B2   A2   A1   B1 
    A2  | A2   B2   B1   A1 


                                 Isotopic Masses
                                 ---------------

                           C          12.000000
                           C   _1     12.000000
                           C   _2     12.000000
                           C   _1     12.000000
                           C   _2     12.000000
                           C          12.000000
                           N          14.003074
                           O   _1     15.994915
                           O   _2     15.994915
                           H   _1      1.007825
                           H   _2      1.007825
                           H   _1      1.007825
                           H   _2      1.007825
                           H           1.007825

                       Total mass:   123.032029 amu
                       Natural abundance:  92.716 %

 Center-of-mass coordinates (a.u.):    0.000000    0.000000   -0.383938


  Atoms and basis sets
  --------------------

  Number of atom types :    4
  Total number of atoms:   14

  Basis set used is "aug-cc-pCVDZ" from the basis set library.

  label    atoms   charge   prim   cont     basis
  ----------------------------------------------------------------------
  C           6    6.0000    39    27      [11s6p2d|5s4p2d]                                   
  N           1    7.0000    39    27      [11s6p2d|5s4p2d]                                   
  O           2    8.0000    39    27      [11s6p2d|5s4p2d]                                   
  H           5    1.0000    11     9      [5s2p|3s2p]                                        
  ----------------------------------------------------------------------
  total:     14   64.0000   406   288
  ----------------------------------------------------------------------
  Spherical harmonic basis used.

  Threshold for neglecting AO integrals:  1.00D-12


  Symmetry Coordinates
  --------------------

  Number of coordinates in each symmetry:    14   14    9    5


   Interatomic separations (in Angstrom):
   --------------------------------------

            C           C   _1      C   _2      C   _1      C   _2      C     
            ------      ------      ------      ------      ------      ------
 C     :    0.000000
 C   _1:    1.391719    0.000000
 C   _2:    1.391719    2.438107    0.000000
 C   _1:    2.392065    1.391780    2.799956    0.000000
 C   _2:    2.392065    2.799956    1.391780    2.421019    0.000000
 C     :    2.757573    2.416230    2.416230    1.395542    1.395542    0.000000
 N     :    1.481505    2.474093    2.474093    3.745665    3.745665    4.239078
 O   _1:    2.319443    2.724875    3.565729    4.115239    4.710371    4.928582
 O   _2:    2.319443    3.565729    2.724875    4.710371    4.115239    4.928582
 H   _1:    2.143694    1.081451    3.407316    2.166922    3.881063    3.407904
 H   _2:    2.143694    3.407316    1.081451    3.881063    2.166922    3.407904
 H   _1:    3.376890    2.145360    3.883675    1.083722    3.403140    2.154719
 H   _2:    3.376890    3.883675    2.145360    3.403140    1.083722    2.154719
 H     :    3.841819    3.396703    3.396703    2.151500    2.151500    1.084247

            N           O   _1      O   _2      H   _1      H   _2      H   _1
            ------      ------      ------      ------      ------      ------
 N     :    0.000000
 O   _1:    1.224763    0.000000
 O   _2:    1.224763    2.169501    0.000000
 H   _1:    2.665523    2.401196    3.880181    0.000000
 H   _2:    2.665523    3.880181    2.401196    4.282121    0.000000
 H   _1:    4.616894    4.774936    5.667958    2.498398    4.964773    0.000000
 H   _2:    4.616894    5.667958    4.774936    4.964773    2.498398    4.298566
 H     :    5.323325    5.990996    5.990996    4.305675    4.305675    2.479943

            H   _2      H     
            ------      ------
 H   _2:    0.000000
 H     :    2.479943    0.000000


  Max    interatomic separation is    5.9910 Angstrom (   11.3213 Bohr)
  between atoms   14 and    8, "H     " and "O   _1".

  Min HX interatomic separation is    1.0815 Angstrom (    2.0436 Bohr)

  Min YX interatomic separation is    1.2248 Angstrom (    2.3145 Bohr)


  Bond distances (Angstrom):
  --------------------------

                  atom 1     atom 2       distance
                  ------     ------       --------
  bond distance:  C   _1     C            1.391719
  bond distance:  C   _2     C            1.391719
  bond distance:  C   _1     C   _1       1.391780
  bond distance:  C   _2     C   _2       1.391780
  bond distance:  C          C   _1       1.395542
  bond distance:  C          C   _2       1.395542
  bond distance:  N          C            1.481505
  bond distance:  O   _1     N            1.224763
  bond distance:  O   _2     N            1.224763
  bond distance:  H   _1     C   _1       1.081451
  bond distance:  H   _2     C   _2       1.081451
  bond distance:  H   _1     C   _1       1.083722
  bond distance:  H   _2     C   _2       1.083722
  bond distance:  H          C            1.084247


  Bond angles (degrees):
  ----------------------

                  atom 1     atom 2     atom 3         angle
                  ------     ------     ------         -----
  bond angle:     C   _1     C          C   _2       122.311
  bond angle:     C   _1     C          N            118.844
  bond angle:     C   _2     C          N            118.844
  bond angle:     C          C   _1     C   _1       118.493
  bond angle:     C          C   _1     H   _1       119.647
  bond angle:     C   _1     C   _1     H   _1       121.860
  bond angle:     C          C   _2     C   _2       118.493
  bond angle:     C          C   _2     H   _2       119.647
  bond angle:     C   _2     C   _2     H   _2       121.860
  bond angle:     C   _1     C   _1     C            120.192
  bond angle:     C   _1     C   _1     H   _1       119.623
  bond angle:     C          C   _1     H   _1       120.185
  bond angle:     C   _2     C   _2     C            120.192
  bond angle:     C   _2     C   _2     H   _2       119.623
  bond angle:     C          C   _2     H   _2       120.185
  bond angle:     C   _1     C          C   _2       120.319
  bond angle:     C   _1     C          H            119.841
  bond angle:     C   _2     C          H            119.841
  bond angle:     C          N          O   _1       117.664
  bond angle:     C          N          O   _2       117.664
  bond angle:     O   _1     N          O   _2       124.671




 Principal moments of inertia (u*A**2) and principal axes
 --------------------------------------------------------

   IA     127.027245          0.000000    0.000000    1.000000
   IB     394.156158          1.000000    0.000000    0.000000
   IC     521.183403          0.000000    1.000000    0.000000


 Rotational constants
 --------------------

@    The molecule is planar.

               A                   B                   C

           3978.5088           1282.1797            969.6759 MHz
            0.132709            0.042769            0.032345 cm-1


@  Nuclear repulsion energy :  412.135415267067 Hartree


  Symmetry Orbitals
  -----------------

  Number of orbitals in each symmetry:         115   91   48   34


  Symmetry  A1 ( 1)

    1     C        1s         1
    2     C        1s         2
    3     C        1s         3
    4     C        1s         4
    5     C        1s         5
    6     C        2pz        8
    7     C        2pz       11
    8     C        2pz       14
    9     C        2pz       17
   10     C        3d0       20
   11     C        3d2+      22
   12     C        3d0       25
   13     C        3d2+      27
   14     C        1s        28 +   29
   15     C        1s        30 +   31
   16     C        1s        32 +   33
   17     C        1s        34 +   35
   18     C        1s        36 +   37
   19     C        2px       38 -   39
   20     C        2pz       42 +   43
   21     C        2px       44 -   45
   22     C        2pz       48 +   49
   23     C        2px       50 -   51
   24     C        2pz       54 +   55
   25     C        2px       56 -   57
   26     C        2pz       60 +   61
   27     C        3d0       66 +   67
   28     C        3d1+      68 -   69
   29     C        3d2+      70 +   71
   30     C        3d0       76 +   77
   31     C        3d1+      78 -   79
   32     C        3d2+      80 +   81
   33     C        1s        82 +   83
   34     C        1s        84 +   85
   35     C        1s        86 +   87
   36     C        1s        88 +   89
   37     C        1s        90 +   91
   38     C        2px       92 -   93
   39     C        2pz       96 +   97
   40     C        2px       98 -   99
   41     C        2pz      102 +  103
   42     C        2px      104 -  105
   43     C        2pz      108 +  109
   44     C        2px      110 -  111
   45     C        2pz      114 +  115
   46     C        3d0      120 +  121
   47     C        3d1+     122 -  123
   48     C        3d2+     124 +  125
   49     C        3d0      130 +  131
   50     C        3d1+     132 -  133
   51     C        3d2+     134 +  135
   52     C        1s       136
   53     C        1s       137
   54     C        1s       138
   55     C        1s       139
   56     C        1s       140
   57     C        2pz      143
   58     C        2pz      146
   59     C        2pz      149
   60     C        2pz      152
   61     C        3d0      155
   62     C        3d2+     157
   63     C        3d0      160
   64     C        3d2+     162
   65     N        1s       163
   66     N        1s       164
   67     N        1s       165
   68     N        1s       166
   69     N        1s       167
   70     N        2pz      170
   71     N        2pz      173
   72     N        2pz      176
   73     N        2pz      179
   74     N        3d0      182
   75     N        3d2+     184
   76     N        3d0      187
   77     N        3d2+     189
   78     O        1s       190 +  191
   79     O        1s       192 +  193
   80     O        1s       194 +  195
   81     O        1s       196 +  197
   82     O        1s       198 +  199
   83     O        2px      200 -  201
   84     O        2pz      204 +  205
   85     O        2px      206 -  207
   86     O        2pz      210 +  211
   87     O        2px      212 -  213
   88     O        2pz      216 +  217
   89     O        2px      218 -  219
   90     O        2pz      222 +  223
   91     O        3d0      228 +  229
   92     O        3d1+     230 -  231
   93     O        3d2+     232 +  233
   94     O        3d0      238 +  239
   95     O        3d1+     240 -  241
   96     O        3d2+     242 +  243
   97     H        1s       244 +  245
   98     H        1s       246 +  247
   99     H        1s       248 +  249
  100     H        2px      250 -  251
  101     H        2pz      254 +  255
  102     H        2px      256 -  257
  103     H        2pz      260 +  261
  104     H        1s       262 +  263
  105     H        1s       264 +  265
  106     H        1s       266 +  267
  107     H        2px      268 -  269
  108     H        2pz      272 +  273
  109     H        2px      274 -  275
  110     H        2pz      278 +  279
  111     H        1s       280
  112     H        1s       281
  113     H        1s       282
  114     H        2pz      285
  115     H        2pz      288


  Symmetry  B1 ( 2)

  116     C        2px        6
  117     C        2px        9
  118     C        2px       12
  119     C        2px       15
  120     C        3d1+      21
  121     C        3d1+      26
  122     C        1s        28 -   29
  123     C        1s        30 -   31
  124     C        1s        32 -   33
  125     C        1s        34 -   35
  126     C        1s        36 -   37
  127     C        2px       38 +   39
  128     C        2pz       42 -   43
  129     C        2px       44 +   45
  130     C        2pz       48 -   49
  131     C        2px       50 +   51
  132     C        2pz       54 -   55
  133     C        2px       56 +   57
  134     C        2pz       60 -   61
  135     C        3d0       66 -   67
  136     C        3d1+      68 +   69
  137     C        3d2+      70 -   71
  138     C        3d0       76 -   77
  139     C        3d1+      78 +   79
  140     C        3d2+      80 -   81
  141     C        1s        82 -   83
  142     C        1s        84 -   85
  143     C        1s        86 -   87
  144     C        1s        88 -   89
  145     C        1s        90 -   91
  146     C        2px       92 +   93
  147     C        2pz       96 -   97
  148     C        2px       98 +   99
  149     C        2pz      102 -  103
  150     C        2px      104 +  105
  151     C        2pz      108 -  109
  152     C        2px      110 +  111
  153     C        2pz      114 -  115
  154     C        3d0      120 -  121
  155     C        3d1+     122 +  123
  156     C        3d2+     124 -  125
  157     C        3d0      130 -  131
  158     C        3d1+     132 +  133
  159     C        3d2+     134 -  135
  160     C        2px      141
  161     C        2px      144
  162     C        2px      147
  163     C        2px      150
  164     C        3d1+     156
  165     C        3d1+     161
  166     N        2px      168
  167     N        2px      171
  168     N        2px      174
  169     N        2px      177
  170     N        3d1+     183
  171     N        3d1+     188
  172     O        1s       190 -  191
  173     O        1s       192 -  193
  174     O        1s       194 -  195
  175     O        1s       196 -  197
  176     O        1s       198 -  199
  177     O        2px      200 +  201
  178     O        2pz      204 -  205
  179     O        2px      206 +  207
  180     O        2pz      210 -  211
  181     O        2px      212 +  213
  182     O        2pz      216 -  217
  183     O        2px      218 +  219
  184     O        2pz      222 -  223
  185     O        3d0      228 -  229
  186     O        3d1+     230 +  231
  187     O        3d2+     232 -  233
  188     O        3d0      238 -  239
  189     O        3d1+     240 +  241
  190     O        3d2+     242 -  243
  191     H        1s       244 -  245
  192     H        1s       246 -  247
  193     H        1s       248 -  249
  194     H        2px      250 +  251
  195     H        2pz      254 -  255
  196     H        2px      256 +  257
  197     H        2pz      260 -  261
  198     H        1s       262 -  263
  199     H        1s       264 -  265
  200     H        1s       266 -  267
  201     H        2px      268 +  269
  202     H        2pz      272 -  273
  203     H        2px      274 +  275
  204     H        2pz      278 -  279
  205     H        2px      283
  206     H        2px      286


  Symmetry  B2 ( 3)

  207     C        2py        7
  208     C        2py       10
  209     C        2py       13
  210     C        2py       16
  211     C        3d1-      19
  212     C        3d1-      24
  213     C        2py       40 +   41
  214     C        2py       46 +   47
  215     C        2py       52 +   53
  216     C        2py       58 +   59
  217     C        3d2-      62 -   63
  218     C        3d1-      64 +   65
  219     C        3d2-      72 -   73
  220     C        3d1-      74 +   75
  221     C        2py       94 +   95
  222     C        2py      100 +  101
  223     C        2py      106 +  107
  224     C        2py      112 +  113
  225     C        3d2-     116 -  117
  226     C        3d1-     118 +  119
  227     C        3d2-     126 -  127
  228     C        3d1-     128 +  129
  229     C        2py      142
  230     C        2py      145
  231     C        2py      148
  232     C        2py      151
  233     C        3d1-     154
  234     C        3d1-     159
  235     N        2py      169
  236     N        2py      172
  237     N        2py      175
  238     N        2py      178
  239     N        3d1-     181
  240     N        3d1-     186
  241     O        2py      202 +  203
  242     O        2py      208 +  209
  243     O        2py      214 +  215
  244     O        2py      220 +  221
  245     O        3d2-     224 -  225
  246     O        3d1-     226 +  227
  247     O        3d2-     234 -  235
  248     O        3d1-     236 +  237
  249     H        2py      252 +  253
  250     H        2py      258 +  259
  251     H        2py      270 +  271
  252     H        2py      276 +  277
  253     H        2py      284
  254     H        2py      287


  Symmetry  A2 ( 4)

  255     C        3d2-      18
  256     C        3d2-      23
  257     C        2py       40 -   41
  258     C        2py       46 -   47
  259     C        2py       52 -   53
  260     C        2py       58 -   59
  261     C        3d2-      62 +   63
  262     C        3d1-      64 -   65
  263     C        3d2-      72 +   73
  264     C        3d1-      74 -   75
  265     C        2py       94 -   95
  266     C        2py      100 -  101
  267     C        2py      106 -  107
  268     C        2py      112 -  113
  269     C        3d2-     116 +  117
  270     C        3d1-     118 -  119
  271     C        3d2-     126 +  127
  272     C        3d1-     128 -  129
  273     C        3d2-     153
  274     C        3d2-     158
  275     N        3d2-     180
  276     N        3d2-     185
  277     O        2py      202 -  203
  278     O        2py      208 -  209
  279     O        2py      214 -  215
  280     O        2py      220 -  221
  281     O        3d2-     224 +  225
  282     O        3d1-     226 -  227
  283     O        3d2-     234 +  235
  284     O        3d1-     236 -  237
  285     H        2py      252 -  253
  286     H        2py      258 -  259
  287     H        2py      270 -  271
  288     H        2py      276 -  277

  Symmetries of electric field:  B1 (2)  B2 (3)  A1 (1)

  Symmetries of magnetic field:  B2 (3)  B1 (2)  A2 (4)


                     .---------------------------------------.
                     | Starting in Integral Section (HERMIT) |
                     `---------------------------------------'



 ***************************************************************************************
 ****************** Output from **INTEGRALS input processing (HERMIT) ******************
 ***************************************************************************************


 - Using defaults, no **INTEGRALS input found

 Default print level:        1

 Calculation of one-electron Hamiltonian integrals.

 Center of mass  (bohr):      0.000000000000      0.000000000000     -0.383938108481
 Operator center (bohr):      0.000000000000      0.000000000000      0.000000000000
 Gauge origin    (bohr):      0.000000000000      0.000000000000      0.000000000000
 Dipole origin   (bohr):      0.000000000000      0.000000000000      0.000000000000


     ************************************************************************
     ************************** Output from HERINT **************************
     ************************************************************************



                      Nuclear contribution to dipole moments
                      --------------------------------------

                 au               Debye          C m (/(10**-30)

      z    -32.41191504       -82.38286538      -274.79965949


  Time used in GABGEN     is       0.11 seconds
  Total CPU  time used in HERMIT:   0.39 seconds
  Total wall time used in HERMIT:   0.39 seconds


                        .----------------------------------.
                        | End of Integral Section (HERMIT) |
                        `----------------------------------'



                   .--------------------------------------------.
                   | Starting in Wave Function Section (SIRIUS) |
                   `--------------------------------------------'


 *** Output from Huckel module :

     Using EWMO model:          F
     Using EHT  model:          T
     Number of Huckel orbitals each symmetry:   24   17    6    3

 Huckel EHT eigenvalues for symmetry :  1
          -20.695822     -15.706036     -11.414993     -11.394585     -11.376746
          -11.362597      -1.748744      -1.555382      -1.196259      -0.941364
           -0.817059      -0.782210      -0.643577      -0.589224      -0.493397
           -0.429144      -0.328230      -0.246947      -0.225806      -0.213738
           -0.205823      -0.178738      -0.166343      -0.160473

 Huckel EHT eigenvalues for symmetry :  2
          -20.700625     -11.396474     -11.377857      -1.399983      -1.203200
           -0.879843      -0.646405      -0.569964      -0.526471      -0.479328
           -0.414891      -0.271537      -0.213209      -0.202807      -0.176234
           -0.165379      -0.163255

 Huckel EHT eigenvalues for symmetry :  3
           -0.800032      -0.672072      -0.465792      -0.384453      -0.281766
           -0.236539

 Huckel EHT eigenvalues for symmetry :  4
           -0.592875      -0.460139      -0.288832

 **********************************************************************
 *SIRIUS* a direct, restricted step, second order MCSCF program       *
 **********************************************************************

 
     Date and time (Linux)  : Tue Jun 18 11:51:30 2019
     Host name              : Lab2-333-NPs                            

 Title lines from ".mol" input file:
      nitrobenzene                                                           
      Generated by the Dalton Input File Plugin for Avogadro                 

 Print level on unit LUPRI =   2 is   0
 Print level on unit LUW4  =   2 is   5

@    MC-SCF optimization.

@    Multi-configurational response calculation.
@              Type: complete active space calculation (CAS).
 Fock matrices are calculated directly without use of integrals on disk.

 Initial molecular orbitals are obtained according to
 ".MOSTART EHT   " input option

     Wave function specification
     ============================
@    Wave function type        --- MC-SCF ---
@    Number of closed shell electrons          54
@    Number of electrons in active shells      10
@    Total charge of the molecule               0

@    Spin multiplicity and 2 M_S                1         0
@    Total number of symmetries                 4 (point group: C2v)
@    Reference state symmetry                   1 (irrep name : A1 )

     Orbital specifications
     ======================
@    Abelian symmetry species          All |    1    2    3    4
@                                          |  A1   B1   B2   A2 
                                       --- |  ---  ---  ---  ---
@    Inactive orbitals                  27 |   15   10    2    0
@    Active orbitals                     9 |    3    2    2    2
@    Secondary orbitals                252 |   97   79   44   32
@    Total number of orbitals          288 |  115   91   48   34
@    Number of basis functions         288 |  115   91   48   34

     Optimization information
     ========================
@    Number of configurations              1368
@    Number of orbital rotations           3003
     ------------------------------------------
@    Total number of variables             4371

     Maximum number of macro iterations      25
     Maximum number of micro iterations     600
     Threshold for MCSCF gradient      1.00D-05
     Number of initial trial vectors          1
     Number of initial CI iterations          3
     Number of simultaneous trial vectors     1

@    This calculation converges to the lowest state for the specified symmetry and spin species.

     Maximum number of NEO/NR iterations  24

    INFORMATION: Switched to "new" integral transformation (from 1988 ;-) )
    because more than 255 basis functions.


        SIRIUS MCSCF optimization (SIROPT)
 ================================================


 Fock matrix screening setting for SIRCNO: IFTHRS =    9


 ----- Output from SIRIUS CI module (CICTL) -----




---> (Re)generating AOTWOINT


     ************************************************************************
     ************************** Output from HERINT **************************
     ************************************************************************


 Threshold for neglecting two-electron integrals:  1.00D-12
 HERMIT - Number of two-electron integrals written:   203489779 ( 23.5% )
 HERMIT - Megabytes written:                           3106.305

  Time used in TWOINT     is      36.22 seconds

 2-el. integral transformation level 0: Total CPU and WALL times (sec)     130.641     133.402

 (CIST1) 6 lowest diagonal elements:

 Element no. Config.no.    Active energy      Total energy

         1 :         85    -17.2351422008   -432.3717090137
         2 :        105    -17.1184670519   -432.2550338648
         3 :        172    -16.9937644482   -432.1303312611
         4 :        294    -16.9333851915   -432.0699520044
         5 :        929    -16.6229923172   -431.7595591301
         6 :        930    -16.6229923172   -431.7595591301


 Convergence threshold for CI optimization :     0.00000500



 *** Reached maximum number of CI iterations:    3
              1 CI roots are not converged.


@ Final CI energies and residuals in symmetry 1 (irrep A1 )
@    1     -432.539816643491747       1.35D-01

   --- OUTPUT FROM SIRCNO     Keyword = FD+NO 


 Occupations of CAS natural orbitals:

 Symmetry  1 ( irrep A1  in C2v )

   1.992953783   0.010090319   0.002531029

 Symmetry  2 ( irrep B1  in C2v )

   1.999343238   0.001080985

 Symmetry  3 ( irrep B2  in C2v )

   1.989981753   1.037414481

 Symmetry  4 ( irrep A2  in C2v )

   0.966764306   1.999840106


 --- MACRO ITERATION  1 ---
 --------------------------

 2-el. integral transformation level 3: Total CPU and WALL times (sec)      94.672      94.762

 Fock matrix screening setting for this macro iteration: 10^( -9)

 Total MCSCF energy       :          -432.539816642846915  (MACRO    1)

 - Nuclear repulsion      :           412.135415267066946
 - Inactive energy        :          -827.271982080007206
 - Active energy          :           -17.403249829906645

 Norm of total gradient   :             5.747929687345
 -    of CI gradient      :             0.269318165697
 -    of orbital gradient :             5.741616794622
      Virial theorem: -V/T =      1.974573
@    MULPOP   C      -0.08; C   _1  0.44; C   _2  0.44; C   _1  0.54; C   _2  0.54; C       0.80; N      -0.66; O   _1 -0.75; O   _2 -0.75; H   _1 -0.06; 
@             H   _2 -0.06; H   _1 -0.08; H   _2 -0.08; H      -0.23; 

 Residual norm when dim(red L) =   5
 NEO root     CSF        orbital          total
    1     0.90910544     0.38597203     0.98764726 converged

 (NEONEX) NEO vector is converged.

   --- OUTPUT FROM SIRCNO     Keyword = FD+NO 


 Occupations of CAS natural orbitals:

 Symmetry  1 ( irrep A1  in C2v )

   1.992953783   0.010090319   0.002531029

 Symmetry  2 ( irrep B1  in C2v )

   1.999343238   0.001080985

 Symmetry  3 ( irrep B2  in C2v )

   1.989981753   1.037414481

 Symmetry  4 ( irrep A2  in C2v )

   0.966764306   1.999840106


 --- MACRO ITERATION  2 ---
 --------------------------

 2-el. integral transformation level 3: Total CPU and WALL times (sec)      94.734      94.798

 Fock matrix screening setting for this macro iteration: 10^( -9)

 Total MCSCF energy       :          -434.079022975176372  (MACRO    2)

 - Nuclear repulsion      :           412.135415267066946
 - Inactive energy        :          -830.382831438433755
 - Active energy          :           -15.831606803809553

 Norm of total gradient   :             1.036703263100
 -    of CI gradient      :             0.573148996514
 -    of orbital gradient :             0.863859874932
      Virial theorem: -V/T =      1.975948
@    MULPOP   C       1.14; C   _1  0.71; C   _2  0.71; C   _1  0.97; C   _2  0.97; C       1.05; N      -1.26; O   _1 -0.96; O   _2 -0.96; H   _1 -0.43; 
@             H   _2 -0.43; H   _1 -0.46; H   _2 -0.46; H      -0.57; 

 Residual norm when dim(red L) =  11
 NEO root     CSF        orbital          total
    1     0.18966180     0.06625229     0.20090038 converged

 (NEONEX) NEO vector is converged.

   --- OUTPUT FROM SIRCNO     Keyword = FD+NO 


 Occupations of CAS natural orbitals:

 Symmetry  1 ( irrep A1  in C2v )

   1.998247244   0.001005934   0.000566829

 Symmetry  2 ( irrep B1  in C2v )

   1.999569373   0.001057420

 Symmetry  3 ( irrep B2  in C2v )

   1.999137950   0.091454575

 Symmetry  4 ( irrep A2  in C2v )

   1.909053679   1.999906997


 --- MACRO ITERATION  3 ---
 --------------------------

 2-el. integral transformation level 3: Total CPU and WALL times (sec)      95.500      95.542

 Fock matrix screening setting for this macro iteration: 10^( -9)

 Total MCSCF energy       :          -434.265830909740089  (MACRO    3)

 - Nuclear repulsion      :           412.135415267066946
 - Inactive energy        :          -830.568615690134834
 - Active energy          :           -15.832630486672185

 Norm of total gradient   :             0.340878300320
 -    of CI gradient      :             0.186331115298
 -    of orbital gradient :             0.285444795189
      Virial theorem: -V/T =      1.976289
@    MULPOP   C       1.64; C   _1  0.54; C   _2  0.54; C   _1  0.98; C   _2  0.98; C       0.89; N      -1.27; O   _1 -1.15; O   _2 -1.15; H   _1 -0.34; 
@             H   _2 -0.34; H   _1 -0.42; H   _2 -0.42; H      -0.49; 

 (SIRNEO) iteration (  3,  4)
 Micro iteration termination criterion met, EVAL(ISTATE+1) = -6.49D-03

   --- OUTPUT FROM SIRCNO     Keyword = FD+NO 


 Occupations of CAS natural orbitals:

 Symmetry  1 ( irrep A1  in C2v )

   1.991177924   0.002468548   0.003236779

 Symmetry  2 ( irrep B1  in C2v )

   1.997735812   0.005873558

 Symmetry  3 ( irrep B2  in C2v )

   1.998985806   0.140868159

 Symmetry  4 ( irrep A2  in C2v )

   1.859706589   1.999946825


 --- MACRO ITERATION  4 ---
 --------------------------

 2-el. integral transformation level 3: Total CPU and WALL times (sec)      94.453      94.516

 Fock matrix screening setting for this macro iteration: 10^( -9)

 Total MCSCF energy       :          -434.286611889184712  (MACRO    4)

 - Nuclear repulsion      :           412.135415267066946
 - Inactive energy        :          -830.130711426918197
 - Active energy          :           -16.291315729333441

 Norm of total gradient   :             0.117308003807
 -    of CI gradient      :             0.092946672711
 -    of orbital gradient :             0.071568734718
      Virial theorem: -V/T =      1.975090
@    MULPOP   C       1.75; C   _1  0.45; C   _2  0.45; C   _1  0.94; C   _2  0.94; C       0.89; N      -1.25; O   _1 -1.07; O   _2 -1.07; H   _1 -0.37; 
@             H   _2 -0.37; H   _1 -0.42; H   _2 -0.42; H      -0.47; 

 Residual norm when dim(red L) =  11
 NEO root     CSF        orbital          total
    1     0.01556559     0.00542594     0.01648419 converged

 (NEONEX) NEO vector is converged.

   --- OUTPUT FROM SIRCNO     Keyword = FD+NO 


 Occupations of CAS natural orbitals:

 Symmetry  1 ( irrep A1  in C2v )

   1.981697334   0.002800336   0.018174771

 Symmetry  2 ( irrep B1  in C2v )

   1.983723836   0.014265558

 Symmetry  3 ( irrep B2  in C2v )

   1.995561219   0.109079149

 Symmetry  4 ( irrep A2  in C2v )

   1.894721704   1.999976092


 --- MACRO ITERATION  5 ---
 --------------------------

 2-el. integral transformation level 3: Total CPU and WALL times (sec)      94.547      94.632

 Fock matrix screening setting for this macro iteration: 10^( -9)

 Total MCSCF energy       :          -434.316082926020670  (MACRO    5)

 - Nuclear repulsion      :           412.135415267066946
 - Inactive energy        :          -828.150383757947111
 - Active energy          :           -18.301114435140530

 Norm of total gradient   :             0.112222268582
 -    of CI gradient      :             0.086410731034
 -    of orbital gradient :             0.071603234060
      Virial theorem: -V/T =      1.975424
@    MULPOP   C       1.64; C   _1  0.26; C   _2  0.26; C   _1  0.89; C   _2  0.89; C       0.84; N      -0.85; O   _1 -0.86; O   _2 -0.86; H   _1 -0.42; 
@             H   _2 -0.42; H   _1 -0.46; H   _2 -0.46; H      -0.46; 

 Residual norm when dim(red L) =   9
 NEO root     CSF        orbital          total
    1     0.02002828     0.00623073     0.02097508 converged

 (NEONEX) NEO vector is converged.

   --- OUTPUT FROM SIRCNO     Keyword = FD+NO 


 Occupations of CAS natural orbitals:

 Symmetry  1 ( irrep A1  in C2v )

   1.975144255   0.001618795   0.032853802

 Symmetry  2 ( irrep B1  in C2v )

   1.965048846   0.026363057

 Symmetry  3 ( irrep B2  in C2v )

   1.983584885   0.114554565

 Symmetry  4 ( irrep A2  in C2v )

   1.900847234   1.999984563


 --- MACRO ITERATION  6 ---
 --------------------------

 2-el. integral transformation level 3: Total CPU and WALL times (sec)      94.359      94.481

 Fock matrix screening setting for this macro iteration: 10^( -9)

 Total MCSCF energy       :          -434.351374515127929  (MACRO    6)

 - Nuclear repulsion      :           412.135415267066946
 - Inactive energy        :          -825.335293022768042
 - Active energy          :           -21.151496759426831

 Norm of total gradient   :             0.116249659921
 -    of CI gradient      :             0.100919756193
 -    of orbital gradient :             0.057699100875
      Virial theorem: -V/T =      1.976319
@    MULPOP   C       1.42; C   _1 -0.02; C   _2 -0.02; C   _1  0.87; C   _2  0.87; C       1.02; N      -0.40; O   _1 -0.70; O   _2 -0.70; H   _1 -0.46; 
@             H   _2 -0.46; H   _1 -0.49; H   _2 -0.49; H      -0.45; 

 Residual norm when dim(red L) =  10
 NEO root     CSF        orbital          total
    1     0.02142250     0.00673690     0.02245683 converged

 (NEONEX) NEO vector is converged.

   --- OUTPUT FROM SIRCNO     Keyword = FD+NO 


 Occupations of CAS natural orbitals:

 Symmetry  1 ( irrep A1  in C2v )

   1.972786655   0.001387633   0.036646394

 Symmetry  2 ( irrep B1  in C2v )

   1.963872417   0.027484486

 Symmetry  3 ( irrep B2  in C2v )

   1.961555690   0.123822535

 Symmetry  4 ( irrep A2  in C2v )

   1.912456576   1.999987615


 --- MACRO ITERATION  7 ---
 --------------------------

 2-el. integral transformation level 3: Total CPU and WALL times (sec)      98.047      98.635

 Fock matrix screening setting for this macro iteration: 10^( -9)

 Total MCSCF energy       :          -434.371366914014118  (MACRO    7)

 - Nuclear repulsion      :           412.135415267066946
 - Inactive energy        :          -823.457153268995285
 - Active energy          :           -23.049628912085776

 Norm of total gradient   :             0.109082585799
 -    of CI gradient      :             0.105409955564
 -    of orbital gradient :             0.028066916335
      Virial theorem: -V/T =      1.976115
@    MULPOP   C       2.31; C   _1 -0.11; C   _2 -0.11; C   _1  0.70; C   _2  0.70; C       0.98; N      -0.61; O   _1 -0.77; O   _2 -0.77; H   _1 -0.46; 
@             H   _2 -0.46; H   _1 -0.48; H   _2 -0.48; H      -0.45; 

 Residual norm when dim(red L) =   7
 NEO root     CSF        orbital          total
    1     0.01694866     0.01202487     0.02078111 converged

 (NEONEX) NEO vector is converged.

   --- OUTPUT FROM SIRCNO     Keyword = FD+NO 


 Occupations of CAS natural orbitals:

 Symmetry  1 ( irrep A1  in C2v )

   1.973722322   0.004689442   0.034066258

 Symmetry  2 ( irrep B1  in C2v )

   1.965792548   0.024030151

 Symmetry  3 ( irrep B2  in C2v )

   1.971509219   0.108293097

 Symmetry  4 ( irrep A2  in C2v )

   1.917901938   1.999995024


 --- MACRO ITERATION  8 ---
 --------------------------

 2-el. integral transformation level 3: Total CPU and WALL times (sec)      94.484      94.598

 Fock matrix screening setting for this macro iteration: 10^( -9)

 Total MCSCF energy       :          -434.375677308570573  (MACRO    8)

 - Nuclear repulsion      :           412.135415267066946
 - Inactive energy        :          -823.459558841389025
 - Active energy          :           -23.051533734248473

 Norm of total gradient   :             0.088464660010
 -    of CI gradient      :             0.087268301310
 -    of orbital gradient :             0.014499643343
      Virial theorem: -V/T =      1.977791
@    MULPOP   C       2.98; C   _1 -0.17; C   _2 -0.17; C   _1  0.75; C   _2  0.75; C       0.99; N      -1.25; O   _1 -0.84; O   _2 -0.84; H   _1 -0.45; 
@             H   _2 -0.45; H   _1 -0.43; H   _2 -0.43; H      -0.43; 

 Residual norm when dim(red L) =   7
 NEO root     CSF        orbital          total
    1     0.01509403     0.00839012     0.01726916 converged

 (NEONEX) NEO vector is converged.

   --- OUTPUT FROM SIRCNO     Keyword = FD+NO 


 Occupations of CAS natural orbitals:

 Symmetry  1 ( irrep A1  in C2v )

   1.975608650   0.002541184   0.034535986

 Symmetry  2 ( irrep B1  in C2v )

   1.965904174   0.023588099

 Symmetry  3 ( irrep B2  in C2v )

   1.971645236   0.107064226

 Symmetry  4 ( irrep A2  in C2v )

   1.919114462   1.999997982


 --- MACRO ITERATION  9 ---
 --------------------------

 2-el. integral transformation level 3: Total CPU and WALL times (sec)      94.172      94.208

 Fock matrix screening setting for this macro iteration: 10^( -9)

 Total MCSCF energy       :          -434.377366830690221  (MACRO    9)

 - Nuclear repulsion      :           412.135415267066946
 - Inactive energy        :          -823.334505830042076
 - Active energy          :           -23.178276267715074

 Norm of total gradient   :             0.025031766792
 -    of CI gradient      :             0.022578658627
 -    of orbital gradient :             0.010807105224
      Virial theorem: -V/T =      1.979326
@    MULPOP   C       2.77; C   _1  0.13; C   _2  0.13; C   _1  0.71; C   _2  0.71; C       0.97; N      -1.68; O   _1 -0.77; O   _2 -0.77; H   _1 -0.45; 
@             H   _2 -0.45; H   _1 -0.44; H   _2 -0.44; H      -0.43; 

 Residual norm when dim(red L) =   9
 NEO root     CSF        orbital          total
    1     0.00393188     0.00129819     0.00414065 converged

 (NEONEX) NEO vector is converged.

   --- OUTPUT FROM SIRCNO     Keyword = FD+NO 


 Occupations of CAS natural orbitals:

 Symmetry  1 ( irrep A1  in C2v )

   1.976045526   0.002871889   0.034093300

 Symmetry  2 ( irrep B1  in C2v )

   1.966173131   0.023235745

 Symmetry  3 ( irrep B2  in C2v )

   1.971364863   0.107255116

 Symmetry  4 ( irrep A2  in C2v )

   1.918962026   1.999998404


 --- MACRO ITERATION 10 ---
 --------------------------

 2-el. integral transformation level 3: Total CPU and WALL times (sec)      94.438      94.460

 Fock matrix screening setting for this macro iteration: 10^( -9)

 Total MCSCF energy       :          -434.377549945334295  (MACRO   10)

 - Nuclear repulsion      :           412.135415267066946
 - Inactive energy        :          -823.354995396226855
 - Active energy          :           -23.157969816174386

 Norm of total gradient   :             0.008748414833
 -    of CI gradient      :             0.008612854595
 -    of orbital gradient :             0.001534111414
      Virial theorem: -V/T =      1.980336
@    MULPOP   C       2.74; C   _1  0.19; C   _2  0.19; C   _1  0.71; C   _2  0.71; C       0.96; N      -1.97; O   _1 -0.67; O   _2 -0.67; H   _1 -0.45; 
@             H   _2 -0.45; H   _1 -0.44; H   _2 -0.44; H      -0.43; 

 Residual norm when dim(red L) =  24
 NEO root     CSF        orbital          total
    1     0.00004965     0.00001655     0.00005234 converged

 (NEONEX) NEO vector is converged.

   --- OUTPUT FROM SIRCNO     Keyword = FD+NO 


 Occupations of CAS natural orbitals:

 Symmetry  1 ( irrep A1  in C2v )

   1.976077558   0.002670659   0.034000256

 Symmetry  2 ( irrep B1  in C2v )

   1.966231944   0.023285863

 Symmetry  3 ( irrep B2  in C2v )

   1.971515787   0.107324754

 Symmetry  4 ( irrep A2  in C2v )

   1.918894725   1.999998453


 --- MACRO ITERATION 11 ---
 --------------------------

 2-el. integral transformation level 3: Total CPU and WALL times (sec)      94.875      94.884

 Fock matrix screening setting for this macro iteration: 10^( -9)

 Total MCSCF energy       :          -434.377559960408746  (MACRO   11)

 - Nuclear repulsion      :           412.135415267066946
 - Inactive energy        :          -823.352369453192296
 - Active energy          :           -23.160605774283400

 Norm of total gradient   :             0.000087239180
 -    of CI gradient      :             0.000081247883
 -    of orbital gradient :             0.000031771939
      Virial theorem: -V/T =      1.980163
@    MULPOP   C       2.69; C   _1  0.22; C   _2  0.22; C   _1  0.71; C   _2  0.71; C       0.97; N      -1.90; O   _1 -0.70; O   _2 -0.70; H   _1 -0.44; 
@             H   _2 -0.44; H   _1 -0.44; H   _2 -0.44; H      -0.43; 

 Residual norm when dim(red L) =  19
 NEO root     CSF        orbital          total
    1     0.00000503     0.00000493     0.00000704 converged

 (NEONEX) NEO vector is converged.

   --- OUTPUT FROM SIRCNO     Keyword = FD+NO 


 Occupations of CAS natural orbitals:

 Symmetry  1 ( irrep A1  in C2v )

   1.976077466   0.002667602   0.033997794

 Symmetry  2 ( irrep B1  in C2v )

   1.966228696   0.023286318

 Symmetry  3 ( irrep B2  in C2v )

   1.971522428   0.107307725

 Symmetry  4 ( irrep A2  in C2v )

   1.918913519   1.999998453


 --- MACRO ITERATION 12 ---
 --------------------------

 2-el. integral transformation level 3: Total CPU and WALL times (sec)      94.969      95.185

 Fock matrix screening setting for this macro iteration: 10^( -9)

 Total MCSCF energy       :          -434.377559978323177  (MACRO   12)

 - Nuclear repulsion      :           412.135415267066946
 - Inactive energy        :          -823.352657689113130
 - Active energy          :           -23.160317556276969

 Norm of total gradient   :             0.000007080471
 -    of CI gradient      :             0.000005067409
 -    of orbital gradient :             0.000004945142
      Virial theorem: -V/T =      1.980149
@    MULPOP   C       2.68; C   _1  0.22; C   _2  0.22; C   _1  0.71; C   _2  0.71; C       0.97; N      -1.90; O   _1 -0.70; O   _2 -0.70; H   _1 -0.44; 
@             H   _2 -0.44; H   _1 -0.44; H   _2 -0.44; H      -0.43; 

 (SIRSTP) Energy difference;
 actual, predicted and ratio:  -0.000000017914431  -0.000000017881905    1.001819
 Close to convergence, ratio set to one.

 *** Optimization control: MCSCF converged ***
     Number of macro iterations used           12
     Number of micro iterations used           97
     Total number of CPU seconds used      4793.86

 CPU and wall time for MCSCF :    4793.859    4800.900


                     .----------------------------------------.
                     | --- SIRIUS OPTIMIZATION STATISTICS --- |
                     `----------------------------------------'


 
     Date and time (Linux)  : Tue Jun 18 13:11:30 2019
     Host name              : Lab2-333-NPs                            


  ITER ITMIC     EMCSCF           GRDNRM        RATIO      STPLNG
 ---------------------------------------------------------------------
    1    4   -432.539816642847   5.7479296873  0.000000   0.7383755179
    2    9   -434.079022975176   1.0367032631  0.933406   0.7647829079
    3    4   -434.265830909740   0.3408783003  0.686192   0.7519086834
    4    9   -434.286611889185   0.1173080038  0.852021   0.7165245665
    5    7   -434.316082926021   0.1122222686  0.846669   0.7260649705
    6    8   -434.351374515128   0.1162496599  0.792478   0.7393903306
    7    5   -434.371366914014   0.1090825858  0.710239   0.7130163365
    8    5   -434.375677308571   0.0884646600  0.632962   0.4121540660
    9    7   -434.377366830690   0.0250317668  0.972793   0.1934181193
   10   22   -434.377549945334   0.0087484148  0.922992   0.0265314606
   11   17   -434.377559960409   0.0000872392  1.008319   0.0030343259
   12    0   -434.377559978323   0.0000070805  1.000000   0.0000000000


  ITER  INDGCM  GCIMAX      GCINRM     INDGOM  GOBMAX      GOBNRM      GRDNRM
 ------------------------------------------------------------------------------
    1    115   -0.119169    0.269318   1793   -1.359409    5.741617    5.747930
    2    105   -0.361782    0.573149   2361    0.319016    0.863860    1.036703
    3     85    0.091920    0.186331   1593    0.142055    0.285445    0.340878
    4    956    0.053311    0.092947     17   -0.021987    0.071569    0.117308
    5    930    0.046544    0.086411   1808    0.027110    0.071603    0.112222
    6    108   -0.040636    0.100920   2760    0.023357    0.057699    0.116250
    7   1020    0.053633    0.105410   2763    0.011150    0.028067    0.109083
    8    106   -0.048645    0.087268   2763    0.004077    0.014500    0.088465
    9    106    0.013868    0.022579   1518   -0.002361    0.010807    0.025032
   10     93   -0.003841    0.008613   1534    0.000253    0.001534    0.008748
   11    102   -0.000028    0.000081   1582   -0.000007    0.000032    0.000087
   12    929   -0.000001    0.000005     41    0.000001    0.000005    0.000007


  ITER ITMIC NCLIN NOLIN   TIMMAC    TIMITR    TIMMIC    TIMLIN    TIMMIC/ITMIC
 ------------------------------------------------------------------------------

    1     4     0     4    272.17     94.67    148.28    119.06     37.07
    2     9     5     5    412.02     94.73    288.08    258.67     32.01
    3     4     2     3    273.38     95.50    147.62    118.47     36.91
    4     9     5     5    411.20     94.45    287.34    258.08     31.93
    5     7     4     4    354.00     94.55    230.30    201.02     32.90
    6     8     5     4    381.86     94.36    258.34    229.16     32.29
    7     5     4     2    302.23     98.05    174.25    144.81     34.85
    8     5     3     3    298.20     94.48    174.36    145.09     34.87
    9     7     4     4    353.98     94.17    230.56    201.41     32.94
   10    22    12    11    787.31     94.44    663.75    634.61     30.17
   11    17    10     8    635.36     94.88    511.38    482.17     30.08
   12     0     0     0    125.42     94.97      0.00      0.00


 ITER         EMY                 EACTIV              EMCSCF

    1   -827.271982080007    -17.403249829907   -432.539816642847
    2   -830.382831438434    -15.831606803810   -434.079022975176
    3   -830.568615690135    -15.832630486672   -434.265830909740
    4   -830.130711426918    -16.291315729333   -434.286611889185
    5   -828.150383757947    -18.301114435141   -434.316082926021
    6   -825.335293022768    -21.151496759427   -434.351374515128
    7   -823.457153268995    -23.049628912086   -434.371366914014
    8   -823.459558841389    -23.051533734248   -434.375677308571
    9   -823.334505830042    -23.178276267715   -434.377366830690
   10   -823.354995396227    -23.157969816174   -434.377549945334
   11   -823.352369453192    -23.160605774283   -434.377559960409
   12   -823.352657689113    -23.160317556277   -434.377559978323


 ITER         DEPRED              DEACT               RATIO

    1      0.000000000000      0.000000000000      0.000000000000
    2     -1.649020569573     -1.539206332329      0.933406387240
    3     -0.272238715788     -0.186807934564      0.686191653613
    4     -0.024390213883     -0.020780979445      0.852021205909
    5     -0.034808234895     -0.029471036836      0.846668523261
    6     -0.044533195200     -0.035291589107      0.792478261404
    7     -0.028148814580     -0.019992398886      0.710239460684
    8     -0.006809881536     -0.004310394556      0.632961753275
    9     -0.001736773873     -0.001689522120      0.972793376027
   10     -0.000198392471     -0.000183114644      0.922991899993
   11     -0.000009932451     -0.000010015074      1.008318530432
   12     -0.000000017882     -0.000000017914      1.000000000000


 ITER    BETA           GAMMA             STPLNG              RTRUST

    1      0.46469320  1.00000000      0.738375517949      0.700000000000
    2      0.71695062  1.00000000      0.764782907914      0.700000000000
    3      1.29826956  1.00000000      0.751908683402      0.700000000000
    4      1.84208836  1.00000000      0.716524566459      0.700000000000
    5      1.58122058  1.00000000      0.726064970472      0.700000000000
    6      1.09844420  1.00000000      0.739390330592      0.700000000000
    7      1.19945768  1.00000000      0.713016336513      0.700000000000
    8      0.20000000  1.00000000      0.412154066011      0.700000000000
    9      0.20000000  1.00000000      0.193418119333      0.700000000000
   10      0.20000000  1.00000000      0.026531460607      0.700000000000
   11      0.20000000  1.00000000      0.003034325875      0.700000000000
   12      0.00000000  0.00000000      0.000000000000      0.700000000000


 Reduced L root no.  1
 ITER         EVAL              EVEC(1)           EVEC(2)           EVEC(3)
 ----------------------------------------------------------------------------
    1   -0.637164823252    0.945870198724   -0.225882617323   -0.200082219546
    2   -0.215178761594    0.876840322814   -0.405978426874   -0.035283976644
    3   -0.042100687493    0.715577898209   -0.058137476021   -0.676505302368
    4   -0.086147616748   -0.603886300350    0.059013196140    0.746670335193
    5   -0.096066881787   -0.656806532338    0.013397355221    0.647207268574
    6   -0.040929231023    0.776235924543   -0.000129683478   -0.517946905794
    7   -0.011317125760    0.759973353394   -0.023741930731   -0.642420620841
    8   -0.000138004194    0.996619796749   -0.003708904202   -0.066744652245
    9   -0.000015847683    0.999252627307   -0.000410082783   -0.037409238060
   10   -0.000000794574    0.999985921929   -0.000346120035   -0.002468938638
   11   -0.000000001431    0.999999815857    0.000001181687   -0.000539598592
   12    0.000000000000    0.000000000000    0.000000000000    0.000000000000


                       .-----------------------------------.
                       | --- Final results from SIRIUS --- |
                       `-----------------------------------'


@    Spin multiplicity:           1
@    Spatial symmetry:            1 ( irrep  A1  in C2v )
@    Total charge of molecule:    0
@    State number:                1

@    Final MCSCF energy:         -434.377559978323                 
@    Nuclear repulsion:           412.135415267067
@    Electronic energy:          -846.512975245390

@    Final gradient norm:           0.000007080471

 
     Date and time (Linux)  : Tue Jun 18 13:11:30 2019
     Host name              : Lab2-333-NPs                            

 Occupancies of natural orbitals
 -------------------------------

 Symmetry 1  ( A1 ) -- Total occupation in this symmetry is  32.012742862

   2.000000000   2.000000000   2.000000000   2.000000000   2.000000000
   2.000000000   2.000000000   2.000000000   2.000000000   2.000000000
   2.000000000   2.000000000   2.000000000   2.000000000   2.000000000
   1.976077466   0.002667602   0.033997794

 Symmetry 2  ( B1 ) -- Total occupation in this symmetry is  21.989515014

   2.000000000   2.000000000   2.000000000   2.000000000   2.000000000
   2.000000000   2.000000000   2.000000000   2.000000000   2.000000000
   1.966228696   0.023286318

 Symmetry 3  ( B2 ) -- Total occupation in this symmetry is   6.078830152

   2.000000000   2.000000000   1.971522428   0.107307725

 Symmetry 4  ( A2 ) -- Total occupation in this symmetry is   3.918911972

   1.918913519   1.999998453

File label for MO orbitals:  18Jun19   (CNOORB)

 (Only coefficients > 0.0100 are printed.)

 Molecular orbitals for symmetry species 1  (A1 )
 ------------------------------------------------

    Orbital         6        7        8        9       10       11       12
   1 C   :1s     0.0015  -0.0122  -0.0139   0.0155   0.0011   0.0066   0.0022
   2 C   :1s    -0.0010   0.2473   0.3765  -0.4059  -0.0030  -0.3095  -0.0004
   3 C   :1s     0.0113   0.0441  -0.0743  -0.2319   0.1005  -0.1155  -0.0282
   5 C   :1s    -0.0014  -0.1519  -0.5702   0.2551  -0.3687  -0.3197  -0.9126
   6 C   :2pz    0.0001   0.1394  -0.0933  -0.0884   0.3260   0.2841   0.0411
   7 C   :2pz   -0.0011  -0.2461   0.0584   0.1455  -0.1278  -0.0774   0.0299
   9 C   :2pz   -0.0006   0.0315   0.1093   0.1101   0.0100  -0.0186   0.1311
  10 C   :3d0    0.0001   0.0191   0.0025  -0.0124   0.0291   0.0210   0.0260
  11 C   :3d2+   0.0001   0.0026   0.0119  -0.0081  -0.0120  -0.0134  -0.0148
  12 C   :3d0   -0.0000  -0.1243  -0.0660   0.0829  -0.1064  -0.0334   0.0019
  13 C   :3d2+  -0.0004   0.0657   0.0510  -0.0468   0.0501   0.0068  -0.0106
  14 C   :1s    -0.0600  -0.0031  -0.0117   0.0022   0.0112  -0.0012   0.0049
  15 C   :1s    -0.0017   0.0682   0.3435  -0.0831  -0.3058   0.0577  -0.1513
  16 C   :1s     0.0177  -0.1396  -0.1508  -0.0170  -0.1001   0.0130   0.0398
  18 C   :1s     0.0222   0.0754   0.3782   0.0593   0.2964   0.1968   0.8016
  19 C   :2px   -0.0001   0.0215   0.0902  -0.0653  -0.0226  -0.2735   0.1858
  20 C   :2pz   -0.0001   0.0151  -0.0368  -0.1261   0.0420  -0.1595  -0.2508
  21 C   :2px    0.0005  -0.0699  -0.0097   0.0777  -0.0443   0.1280  -0.0849
  22 C   :2pz   -0.0167  -0.1018  -0.0096   0.2514   0.0107   0.0493   0.1707
  25 C   :2px    0.0036   0.0189   0.0555  -0.0438   0.0237   0.0564   0.1253
  26 C   :2pz   -0.0059  -0.0099  -0.0384  -0.0856  -0.0224  -0.0001  -0.0824
  27 C   :3d0   -0.0000   0.0028   0.0048   0.0077   0.0022   0.0187   0.0117
  28 C   :3d1+   0.0000   0.0065   0.0042  -0.0118   0.0018  -0.0018   0.0065
  30 C   :3d0    0.0041   0.0150  -0.0303  -0.0329  -0.0476  -0.0209  -0.0394
  31 C   :3d1+  -0.0014  -0.0086  -0.0257   0.0471  -0.0530   0.0223  -0.0461
  32 C   :3d2+  -0.0010  -0.0035   0.0148   0.0258   0.0220   0.0121   0.0253
  33 C   :1s     0.6912  -0.0012  -0.0114  -0.0102  -0.0020  -0.0068  -0.0020
  34 C   :1s     0.0112   0.0257   0.3098   0.2789   0.0225   0.2409   0.1561
  35 C   :1s    -0.0454  -0.0510  -0.0458   0.0291   0.0217   0.0439   0.1137
  37 C   :1s    -0.0455  -0.0419  -0.2376  -0.0324  -0.1538  -0.4002  -0.7772
  38 C   :2px   -0.0001   0.0049   0.0737   0.0856   0.0936  -0.2315   0.1217
  39 C   :2pz    0.0001   0.0142   0.0494  -0.0546  -0.1913   0.0862   0.1268
  40 C   :2px   -0.0062   0.0180  -0.0335  -0.0649  -0.0762   0.1642  -0.0195
  41 C   :2pz   -0.0118  -0.0185   0.0033   0.1856   0.1840  -0.0516  -0.0076
  44 C   :2px   -0.0085  -0.0105  -0.0285   0.0561   0.0044  -0.0973  -0.1392
  45 C   :2pz   -0.0062  -0.0068  -0.0346  -0.0517  -0.0578   0.0051  -0.0729
  46 C   :3d0    0.0002   0.0012   0.0070  -0.0028  -0.0130   0.0055  -0.0053
  47 C   :3d1+  -0.0000   0.0016  -0.0029  -0.0103  -0.0075   0.0044   0.0115
  49 C   :3d0   -0.0039  -0.0072   0.0184   0.0484   0.0287   0.0065   0.0226
  50 C   :3d1+   0.0001   0.0115  -0.0266   0.0243   0.0109  -0.0575  -0.0353
  51 C   :3d2+  -0.0015   0.0040  -0.0047  -0.0308  -0.0158  -0.0051  -0.0142
  52 C   :1s    -0.2100  -0.0007  -0.0105  -0.0162  -0.0136   0.0054   0.0046
  53 C   :1s    -0.0039   0.0160   0.3040   0.4181   0.4084  -0.2702  -0.1781
  54 C   :1s     0.0190  -0.0073  -0.0864   0.1196   0.0762  -0.1396   0.0221
  56 C   :1s     0.0420   0.0394   0.1939  -0.2034  -0.0232   0.5953   0.8221
  57 C   :2pz    0.0001   0.0073   0.0862   0.0666  -0.0288   0.0281   0.4019
  58 C   :2pz    0.0100  -0.0155  -0.0129   0.0862   0.1021  -0.0825  -0.1732
  60 C   :2pz    0.0118   0.0122   0.0487  -0.0013   0.0353   0.0977   0.1418
  62 C   :3d2+  -0.0003   0.0012   0.0092   0.0127   0.0110   0.0003   0.0053
  63 C   :3d0    0.0004  -0.0047   0.0099  -0.0271  -0.0387   0.0611   0.0851
  64 C   :3d2+   0.0026   0.0040  -0.0067   0.0169   0.0236  -0.0335  -0.0466
  65 N   :1s     0.0000  -0.0106   0.0014   0.0018  -0.0019  -0.0003   0.0013
  66 N   :1s     0.0001   0.3432   0.0547  -0.2375   0.3483   0.1949   0.1259
  67 N   :1s    -0.0013  -0.0873   0.0676  -0.1497   0.1521   0.0795  -0.0121
  69 N   :1s    -0.0005  -0.0536   0.1397  -0.2366   0.1637   0.1343   0.1205
  70 N   :2pz   -0.0000  -0.1911  -0.0848   0.2550  -0.3313  -0.1829  -0.0981
  71 N   :2pz    0.0006  -0.1499   0.0244  -0.0419   0.0314   0.0132  -0.0027
  73 N   :2pz    0.0026  -0.0692  -0.0864   0.0018  -0.0250  -0.0281  -0.0681
  74 N   :3d0   -0.0000   0.0042   0.0060  -0.0104   0.0057  -0.0032  -0.0000
  75 N   :3d2+  -0.0000   0.0120  -0.0035   0.0029  -0.0003   0.0021  -0.0007
  76 N   :3d0    0.0000   0.0396   0.0109  -0.0098   0.0054   0.0019   0.0039
  77 N   :3d2+   0.0001  -0.0588  -0.0054  -0.0058   0.0095   0.0053   0.0004
  79 O   :1s     0.0000   0.5210  -0.2031   0.2509  -0.1767  -0.0690  -0.0209
  80 O   :1s    -0.0000   0.1133  -0.0145   0.0449  -0.0468  -0.0237   0.0011
  82 O   :1s    -0.0002   0.1044  -0.0261   0.0647  -0.0285  -0.0243   0.0067
  83 O   :2px   -0.0000  -0.0991   0.0284  -0.0222  -0.0031  -0.0230   0.0010
  84 O   :2pz   -0.0000   0.0279  -0.0376   0.0787  -0.0983  -0.0879  -0.0053
  85 O   :2px    0.0002   0.0456  -0.0127   0.0243  -0.0224  -0.0107  -0.0015
  86 O   :2pz   -0.0000  -0.0248   0.0026  -0.0194   0.0233   0.0118   0.0025
  89 O   :2px   -0.0004   0.0146   0.0041   0.0089  -0.0012  -0.0011   0.0026
  90 O   :2pz   -0.0006   0.0095   0.0165  -0.0017   0.0012   0.0074   0.0099
  97 H   :1s    -0.0000   0.0199   0.0786  -0.0411  -0.1160   0.1519  -0.3403
  98 H   :1s     0.0057  -0.0189  -0.1042   0.0109  -0.0820  -0.0490  -0.0795
  99 H   :1s     0.0027   0.0106   0.0172   0.0045   0.0136   0.0148   0.0289
 100 H   :2px    0.0000   0.0025   0.0070  -0.0049  -0.0057   0.0047  -0.0134
 102 H   :2px    0.0012  -0.0021  -0.0117   0.0057  -0.0214   0.0085  -0.0379
 103 H   :2pz   -0.0016  -0.0005   0.0168   0.0133   0.0171   0.0165   0.0331
 104 H   :1s     0.0004   0.0000   0.0716   0.0898   0.0207   0.2538  -0.0612
 105 H   :1s     0.0018  -0.0068  -0.0030  -0.0260   0.0258   0.0338   0.1397
 106 H   :1s    -0.0040  -0.0072  -0.0119   0.0006  -0.0075  -0.0209  -0.0491
 107 H   :2px   -0.0001  -0.0001   0.0054   0.0074   0.0025   0.0101  -0.0029
 109 H   :2px    0.0006  -0.0001   0.0030  -0.0084   0.0009   0.0300   0.0260
 110 H   :2pz    0.0002   0.0008   0.0006   0.0112   0.0161   0.0035   0.0117
 111 H   :1s    -0.0002   0.0028   0.0689   0.1374   0.2135  -0.1645  -0.4602
 112 H   :1s     0.0058  -0.0016  -0.0706   0.0215   0.0027  -0.0975  -0.0699
 113 H   :1s     0.0046   0.0062   0.0109  -0.0132   0.0047   0.0426   0.0316
 114 H   :2pz    0.0001   0.0004   0.0066   0.0104   0.0144  -0.0086  -0.0197
 115 H   :2pz    0.0021  -0.0004  -0.0131   0.0141   0.0163  -0.0343  -0.0511

    Orbital        13       14       15       16       17       18       19
   2 C   :1s     0.2879   0.0588   0.0709  -0.1013   0.1674  -0.0685  -0.0277
   3 C   :1s     0.1637   0.2845   0.0143   0.2776  -4.4092  -0.2600   0.9758
   5 C   :1s    -0.6000   0.3416  -0.4521   0.3912  -1.0209  -0.0810   0.7015
   6 C   :2pz   -0.1255   0.2369  -0.1209  -0.1826   0.2203  -0.1078  -0.0137
   7 C   :2pz   -0.0287  -0.2154   0.0487  -0.0358  -0.0433   0.0507  -0.1262
   9 C   :2pz    0.0704  -0.1752  -0.0485   0.0897   0.3307  -0.1650  -0.1616
  10 C   :3d0   -0.0010   0.0027  -0.0255  -0.0084  -0.0189  -0.0043   0.0012
  11 C   :3d2+  -0.0011   0.0003   0.0124   0.0017  -0.0157   0.0014   0.0020
  12 C   :3d0   -0.0119  -0.0763  -0.0034  -0.1149   0.9899   0.0581  -0.2658
  13 C   :3d2+  -0.0060   0.0404   0.0044   0.0430  -0.5292  -0.0221   0.2079
  15 C   :1s    -0.1242   0.0032  -0.0795   0.0155  -0.0261   0.0137   0.0031
  16 C   :1s    -0.0136  -0.0972  -0.0273   0.0396  -0.0475  -0.1002   0.2677
  18 C   :1s     0.7679  -0.4401   0.3378  -0.1360   0.8968  -0.1549   3.8546
  19 C   :2px    0.2338  -0.1340  -0.0144   0.0211  -0.0287   0.0106  -0.0085
  20 C   :2pz    0.0176   0.0936   0.3330   0.0248  -0.0401   0.0151   0.0074
  21 C   :2px   -0.0815  -0.0434   0.0283  -0.0195   0.4643   0.0422  -0.2779
  22 C   :2pz    0.0203  -0.2107  -0.0616  -0.2393   2.4654   0.1775  -0.6058
  25 C   :2px    0.0964  -0.0342   0.0978  -0.0548   0.1239  -0.0084   0.3651
  26 C   :2pz   -0.1232   0.1001   0.0108  -0.0557  -0.1537   0.1197  -1.1783
  27 C   :3d0   -0.0050  -0.0002  -0.0121  -0.0034   0.0049  -0.0027   0.0014
  28 C   :3d1+   0.0247  -0.0036  -0.0024  -0.0033   0.0161   0.0001   0.0004
  30 C   :3d0    0.0146   0.0558   0.0066   0.0430  -0.2795  -0.0195   0.1020
  31 C   :3d1+  -0.0807   0.0089  -0.0067  -0.0505   0.6619   0.0597  -0.2003
  32 C   :3d2+  -0.0014  -0.0290  -0.0043  -0.0106   0.1408   0.0130  -0.0024
  34 C   :1s     0.1062   0.0149   0.0420  -0.0119   0.0118  -0.0119   0.0400
  35 C   :1s    -0.0665  -0.1269   0.0169  -0.1654   1.4280   0.1093  -0.1125
  37 C   :1s    -0.8609   0.3663  -0.4804   0.1071  -0.6550   0.1558  -2.3478
  38 C   :2px   -0.3139   0.0741   0.0431  -0.0022   0.0090  -0.0008  -0.0432
  39 C   :2pz   -0.1531  -0.0696  -0.3577  -0.0209   0.0429  -0.0116  -0.0244
  40 C   :2px    0.1031   0.0112   0.0472  -0.0020  -0.1022  -0.0150  -0.0944
  41 C   :2pz    0.0622  -0.0997   0.0297  -0.1515   1.3987   0.1384  -0.6526
  44 C   :2px   -0.1036   0.0186  -0.1151   0.0471  -0.0043  -0.0017  -0.9506
  45 C   :2pz   -0.1101   0.0595  -0.0233   0.0029  -0.1195   0.0332  -1.3964
  46 C   :3d0   -0.0016  -0.0078  -0.0257  -0.0006   0.0044   0.0007  -0.0007
  47 C   :3d1+   0.0226  -0.0059   0.0052   0.0010   0.0028   0.0009  -0.0039
  48 C   :3d2+   0.0005   0.0042   0.0145   0.0002  -0.0004   0.0003  -0.0007
  49 C   :3d0    0.0263  -0.0144   0.0405  -0.0418   0.3448   0.0393  -0.0485
  50 C   :3d1+  -0.0902   0.0235  -0.0383  -0.0176   0.2219   0.0353  -0.0825
  51 C   :3d2+  -0.0196   0.0092  -0.0202   0.0210  -0.2225  -0.0225   0.0691
[...]
      ----------------------------------------------------------------
         1    2.42957D+00  1.85D+00  1.58D+00  2.35D+02    0.00000D+00

 ** RSPCTL MICROITERATION NUMBER   12

       No.  Residual tot.,    conf., and orb.    Bnorm      Frequency 
      ----------------------------------------------------------------
         1    1.91222D+00  6.26D-01  1.81D+00  2.40D+02    0.00000D+00

 ** RSPCTL MICROITERATION NUMBER   13

       No.  Residual tot.,    conf., and orb.    Bnorm      Frequency 
      ----------------------------------------------------------------
         1    1.37344D+00  1.12D+00  7.97D-01  2.51D+02    0.00000D+00

 ** RSPCTL MICROITERATION NUMBER   14

       No.  Residual tot.,    conf., and orb.    Bnorm      Frequency 
      ----------------------------------------------------------------
         1    9.73942D-01  3.04D-01  9.25D-01  2.53D+02    0.00000D+00

 ** RSPCTL MICROITERATION NUMBER   15

       No.  Residual tot.,    conf., and orb.    Bnorm      Frequency 
      ----------------------------------------------------------------
         1    6.07346D-01  4.66D-01  3.89D-01  2.55D+02    0.00000D+00

 ** RSPCTL MICROITERATION NUMBER   16

       No.  Residual tot.,    conf., and orb.    Bnorm      Frequency 
      ----------------------------------------------------------------
         1    4.33000D-01  9.38D-02  4.23D-01  2.56D+02    0.00000D+00

 ** RSPCTL MICROITERATION NUMBER   17

       No.  Residual tot.,    conf., and orb.    Bnorm      Frequency 
      ----------------------------------------------------------------
         1    2.20362D-01  1.42D-01  1.69D-01  2.56D+02    0.00000D+00

 *** THE REQUESTED    1 SOLUTION VECTORS CONVERGED

 Convergence of RSP solution vectors, threshold = 1.00D-03
 ---------------------------------------------------------------
 (dimension of paired reduced space:   36)
 RSP solution vector no.    1; norm of residual   8.60D-04

 *** RSPCTL MICROITERATIONS CONVERGED
    ZDIPLEN     ZDIPLEN      freq1     freq2                Norm
 ---------------------------------------------------------------
                          0.000000  0.000000        256.18690645
 INFO: Inact-act orbital rotation         207         256  pruned
 INFO: Inact-act orbital rotation         208         256  pruned

INFO:    2 redundant orbital rotations pruned.


 Perturbation symmetry.     KSYMOP:       2
 Perturbation spin symmetry.TRPLET:       F
 Orbital variables.         KZWOPT:    2864
 Configuration variables.   KZCONF:    3960
 Total number of variables. KZVAR :    6824


 CRLRV2 -- linear response calc for sym:  2
 CRLRV2 -- operator label1: XDIPLEN 
 CRLRV2 -- operator label2: ZDIPLEN 
 CRLRV2 -- freqr1 :   0.000000D+00
 CRLRV2 -- freqr2 :   0.000000D+00



 ---  SOLVING SETS OF LINEAR EQUATIONS FOR LINEAR RESPONSE PROPERTIES ---

 Operator symmetry = 2  ( B1 ); triplet =   F


 ** RSPCTL MICROITERATION NUMBER    1

       No.  Residual tot.,    conf., and orb.    Bnorm      Frequency 
      ----------------------------------------------------------------
         1    1.45721D+01  7.80D+00  1.23D+01  6.18D+01    0.00000D+00

 ** RSPCTL MICROITERATION NUMBER    2

       No.  Residual tot.,    conf., and orb.    Bnorm      Frequency 
      ----------------------------------------------------------------
         1    1.10090D+01  9.84D+00  4.93D+00  6.54D+01    0.00000D+00

 ** RSPCTL MICROITERATION NUMBER    3

       No.  Residual tot.,    conf., and orb.    Bnorm      Frequency 
      ----------------------------------------------------------------
         1    7.11215D+00  2.88D+00  6.50D+00  6.84D+01    0.00000D+00

 ** RSPCTL MICROITERATION NUMBER    4

       No.  Residual tot.,    conf., and orb.    Bnorm      Frequency 
      ----------------------------------------------------------------
         1    5.49340D+00  4.60D+00  3.00D+00  8.41D+01    0.00000D+00

 ** RSPCTL MICROITERATION NUMBER    5

       No.  Residual tot.,    conf., and orb.    Bnorm      Frequency 
      ----------------------------------------------------------------
         1    3.89677D+00  1.16D+00  3.72D+00  8.71D+01    0.00000D+00

 ** RSPCTL MICROITERATION NUMBER    6

       No.  Residual tot.,    conf., and orb.    Bnorm      Frequency 
      ----------------------------------------------------------------
         1    4.27300D+00  3.64D+00  2.24D+00  1.13D+02    0.00000D+00

 ** RSPCTL MICROITERATION NUMBER    7

       No.  Residual tot.,    conf., and orb.    Bnorm      Frequency 
      ----------------------------------------------------------------
         1    3.80372D+00  1.23D+00  3.60D+00  1.25D+02    0.00000D+00

 ** RSPCTL MICROITERATION NUMBER    8

       No.  Residual tot.,    conf., and orb.    Bnorm      Frequency 
      ----------------------------------------------------------------
         1    4.96515D+00  4.00D+00  2.95D+00  1.85D+02    0.00000D+00

 ** RSPCTL MICROITERATION NUMBER    9

       No.  Residual tot.,    conf., and orb.    Bnorm      Frequency 
      ----------------------------------------------------------------
         1    4.47845D+00  1.19D+00  4.32D+00  2.12D+02    0.00000D+00

 ** RSPCTL MICROITERATION NUMBER   10

       No.  Residual tot.,    conf., and orb.    Bnorm      Frequency 
      ----------------------------------------------------------------
         1    3.55229D+00  2.73D+00  2.27D+00  2.92D+02    0.00000D+00

 ** RSPCTL MICROITERATION NUMBER   11

       No.  Residual tot.,    conf., and orb.    Bnorm      Frequency 
      ----------------------------------------------------------------
         1    3.19587D+00  1.16D+00  2.98D+00  3.12D+02    0.00000D+00

 ** RSPCTL MICROITERATION NUMBER   12

       No.  Residual tot.,    conf., and orb.    Bnorm      Frequency 
      ----------------------------------------------------------------
         1    2.49427D+00  2.01D+00  1.47D+00  3.46D+02    0.00000D+00

 ** RSPCTL MICROITERATION NUMBER   13

       No.  Residual tot.,    conf., and orb.    Bnorm      Frequency 
      ----------------------------------------------------------------
         1    1.86367D+00  7.90D-01  1.69D+00  3.55D+02    0.00000D+00

 ** RSPCTL MICROITERATION NUMBER   14

       No.  Residual tot.,    conf., and orb.    Bnorm      Frequency 
      ----------------------------------------------------------------
         1    1.24509D+00  1.03D+00  7.05D-01  3.65D+02    0.00000D+00

 ** RSPCTL MICROITERATION NUMBER   15

       No.  Residual tot.,    conf., and orb.    Bnorm      Frequency 
      ----------------------------------------------------------------
         1    7.67125D-01  2.67D-01  7.19D-01  3.67D+02    0.00000D+00

 ** RSPCTL MICROITERATION NUMBER   16

       No.  Residual tot.,    conf., and orb.    Bnorm      Frequency 
      ----------------------------------------------------------------
         1    4.09146D-01  3.10D-01  2.67D-01  3.69D+02    0.00000D+00

 ** RSPCTL MICROITERATION NUMBER   17

       No.  Residual tot.,    conf., and orb.    Bnorm      Frequency 
      ----------------------------------------------------------------
         1    2.88876D-01  6.90D-02  2.81D-01  3.69D+02    0.00000D+00

 *** THE REQUESTED    1 SOLUTION VECTORS CONVERGED

 Convergence of RSP solution vectors, threshold = 1.00D-03
 ---------------------------------------------------------------
 (dimension of paired reduced space:   36)
 RSP solution vector no.    1; norm of residual   7.83D-04

 *** RSPCTL MICROITERATIONS CONVERGED
    XDIPLEN     ZDIPLEN      freq1     freq2                Norm
 ---------------------------------------------------------------
                          0.000000  0.000000        368.91400659
 INFO: Inact-act orbital rotation         116         256  pruned
 INFO: Inact-act orbital rotation         117         256  pruned
 INFO: Inact-act orbital rotation         118         256  pruned
 INFO: Inact-act orbital rotation         119         256  pruned
 INFO: Inact-act orbital rotation         120         256  pruned
 INFO: Inact-act orbital rotation         121         256  pruned
 INFO: Inact-act orbital rotation         122         256  pruned
 INFO: Inact-act orbital rotation         123         256  pruned
 INFO: Inact-act orbital rotation         124         256  pruned
 INFO: Inact-act orbital rotation         125         256  pruned

INFO:   10 redundant orbital rotations pruned.


 Perturbation symmetry.     KSYMOP:       3
 Perturbation spin symmetry.TRPLET:       F
 Orbital variables.         KZWOPT:    1768
 Configuration variables.   KZCONF:    3960
 Total number of variables. KZVAR :    5728


 CRLRV2 -- linear response calc for sym:  3
 CRLRV2 -- operator label1: YDIPLEN 
 CRLRV2 -- operator label2: ZDIPLEN 
 CRLRV2 -- freqr1 :   0.000000D+00
 CRLRV2 -- freqr2 :   0.000000D+00



 ---  SOLVING SETS OF LINEAR EQUATIONS FOR LINEAR RESPONSE PROPERTIES ---

 Operator symmetry = 3  ( B2 ); triplet =   F


 ** RSPCTL MICROITERATION NUMBER    1

       No.  Residual tot.,    conf., and orb.    Bnorm      Frequency 
      ----------------------------------------------------------------
         1    1.09089D+01  4.79D+00  9.80D+00  5.63D+01    0.00000D+00

 ** RSPCTL MICROITERATION NUMBER    2

       No.  Residual tot.,    conf., and orb.    Bnorm      Frequency 
      ----------------------------------------------------------------
         1    5.30226D+00  3.73D+00  3.77D+00  5.40D+01    0.00000D+00

 ** RSPCTL MICROITERATION NUMBER    3

       No.  Residual tot.,    conf., and orb.    Bnorm      Frequency 
      ----------------------------------------------------------------
         1    3.26000D+00  3.09D+00  1.03D+00  5.24D+01    0.00000D+00

 ** RSPCTL MICROITERATION NUMBER    4

       No.  Residual tot.,    conf., and orb.    Bnorm      Frequency 
      ----------------------------------------------------------------
         1    1.31941D+00  6.63D-01  1.14D+00  5.27D+01    0.00000D+00

 ** RSPCTL MICROITERATION NUMBER    5

       No.  Residual tot.,    conf., and orb.    Bnorm      Frequency 
      ----------------------------------------------------------------
         1    9.14378D+00  7.01D+00  5.88D+00  1.06D+02    0.00000D+00

 ** RSPCTL MICROITERATION NUMBER    6

 *** INFO, negative eigenvalues in reduced matrix. Symmetry  3,  triplet       F Dimension of reduced matrix =    14

 GP * SOLUTION vector at frequency     0.00000 a.u.
 after    7 linear transformations is      1.66471954D+03
 INERTIA (POS,ZER,NEG) of reduced matrix is   13    0    1
 Determinant of reduced matrix is -2.45 * 10 ** -5.0

       No.  Residual tot.,    conf., and orb.    Bnorm      Frequency 
      ----------------------------------------------------------------
         1    1.78071D+01  4.33D+00  1.73D+01  1.58D+02    0.00000D+00

 ** RSPCTL MICROITERATION NUMBER    7

 *** INFO, negative eigenvalues in reduced matrix. Symmetry  3,  triplet       F Dimension of reduced matrix =    16

 GP * SOLUTION vector at frequency     0.00000 a.u.
 after    8 linear transformations is      1.68669653D+03
 INERTIA (POS,ZER,NEG) of reduced matrix is   15    0    1
 Determinant of reduced matrix is -1.93 * 10 ** -6.0

       No.  Residual tot.,    conf., and orb.    Bnorm      Frequency 
      ----------------------------------------------------------------
         1    1.76128D+00  1.38D+00  1.09D+00  5.08D+01    0.00000D+00

 ** RSPCTL MICROITERATION NUMBER    8

 *** INFO, negative eigenvalues in reduced matrix. Symmetry  3,  triplet       F Dimension of reduced matrix =    18

 GP * SOLUTION vector at frequency     0.00000 a.u.
 after    9 linear transformations is      1.68727997D+03
 INERTIA (POS,ZER,NEG) of reduced matrix is   17    0    1
 Determinant of reduced matrix is -1.10 * 10 ** -5.0

       No.  Residual tot.,    conf., and orb.    Bnorm      Frequency 
      ----------------------------------------------------------------
         1    1.19348D+00  3.09D-01  1.15D+00  5.05D+01    0.00000D+00

 ** RSPCTL MICROITERATION NUMBER    9

 *** INFO, negative eigenvalues in reduced matrix. Symmetry  3,  triplet       F Dimension of reduced matrix =    20

 GP * SOLUTION vector at frequency     0.00000 a.u.
 after   10 linear transformations is      1.68774339D+03
 INERTIA (POS,ZER,NEG) of reduced matrix is   19    0    1
 Determinant of reduced matrix is -9.31 * 10 ** -7.0

       No.  Residual tot.,    conf., and orb.    Bnorm      Frequency 
      ----------------------------------------------------------------
         1    5.45091D-01  4.18D-01  3.50D-01  5.10D+01    0.00000D+00

 ** RSPCTL MICROITERATION NUMBER   10

 *** INFO, negative eigenvalues in reduced matrix. Symmetry  3,  triplet       F Dimension of reduced matrix =    22

 GP * SOLUTION vector at frequency     0.00000 a.u.
 after   11 linear transformations is      1.68779767D+03
 INERTIA (POS,ZER,NEG) of reduced matrix is   21    0    1
 Determinant of reduced matrix is -6.36 * 10 ** -6.0

       No.  Residual tot.,    conf., and orb.    Bnorm      Frequency 
      ----------------------------------------------------------------
         1    4.09819D-01  9.45D-02  3.99D-01  5.11D+01    0.00000D+00

 ** RSPCTL MICROITERATION NUMBER   11

 *** INFO, negative eigenvalues in reduced matrix. Symmetry  3,  triplet       F Dimension of reduced matrix =    24

 GP * SOLUTION vector at frequency     0.00000 a.u.
 after   12 linear transformations is      1.68791708D+03
 INERTIA (POS,ZER,NEG) of reduced matrix is   23    0    1
 Determinant of reduced matrix is -2.09 * 10 ** -7.0

       No.  Residual tot.,    conf., and orb.    Bnorm      Frequency 
      ----------------------------------------------------------------
         1    3.46488D-01  2.14D-01  2.72D-01  5.13D+01    0.00000D+00

 ** RSPCTL MICROITERATION NUMBER   12

 *** INFO, negative eigenvalues in reduced matrix. Symmetry  3,  triplet       F Dimension of reduced matrix =    26

 GP * SOLUTION vector at frequency     0.00000 a.u.
 after   13 linear transformations is      1.68795651D+03
 INERTIA (POS,ZER,NEG) of reduced matrix is   25    0    1
 Determinant of reduced matrix is -1.69 * 10 ** -8.0

       No.  Residual tot.,    conf., and orb.    Bnorm      Frequency 
      ----------------------------------------------------------------
         1    3.14908D-01  2.72D-01  1.58D-01  5.13D+01    0.00000D+00

 ** RSPCTL MICROITERATION NUMBER   13

 *** INFO, negative eigenvalues in reduced matrix. Symmetry  3,  triplet       F Dimension of reduced matrix =    28

 GP * SOLUTION vector at frequency     0.00000 a.u.
 after   14 linear transformations is      1.68798785D+03
 INERTIA (POS,ZER,NEG) of reduced matrix is   27    0    1
 Determinant of reduced matrix is -7.09 * 10 ** -8.0

       No.  Residual tot.,    conf., and orb.    Bnorm      Frequency 
      ----------------------------------------------------------------
         1    2.20915D-01  7.65D-02  2.07D-01  5.13D+01    0.00000D+00

 ** RSPCTL MICROITERATION NUMBER   14

 *** INFO, negative eigenvalues in reduced matrix. Symmetry  3,  triplet       F Dimension of reduced matrix =    30

 GP * SOLUTION vector at frequency     0.00000 a.u.
 after   15 linear transformations is      1.68800925D+03
 INERTIA (POS,ZER,NEG) of reduced matrix is   29    0    1
 Determinant of reduced matrix is -7.62 * 10 ** -9.0

       No.  Residual tot.,    conf., and orb.    Bnorm      Frequency 
      ----------------------------------------------------------------
         1    1.46917D-01  1.10D-01  9.79D-02  5.14D+01    0.00000D+00

 ** RSPCTL MICROITERATION NUMBER   15

 *** INFO, negative eigenvalues in reduced matrix. Symmetry  3,  triplet       F Dimension of reduced matrix =    32

 GP * SOLUTION vector at frequency     0.00000 a.u.
 after   16 linear transformations is      1.68801269D+03
 INERTIA (POS,ZER,NEG) of reduced matrix is   31    0    1
 Determinant of reduced matrix is -6.81 * 10 ** -8.0

       No.  Residual tot.,    conf., and orb.    Bnorm      Frequency 
      ----------------------------------------------------------------
         1    1.11611D-01  2.66D-02  1.08D-01  5.14D+01    0.00000D+00

 ** RSPCTL MICROITERATION NUMBER   16

 *** INFO, negative eigenvalues in reduced matrix. Symmetry  3,  triplet       F Dimension of reduced matrix =    34

 GP * SOLUTION vector at frequency     0.00000 a.u.
 after   17 linear transformations is      1.68801711D+03
 INERTIA (POS,ZER,NEG) of reduced matrix is   33    0    1
 Determinant of reduced matrix is -6.71 * 10 ** -9.0

       No.  Residual tot.,    conf., and orb.    Bnorm      Frequency 
      ----------------------------------------------------------------
         1    5.50587D-02  3.49D-02  4.26D-02  5.14D+01    0.00000D+00

 ** RSPCTL MICROITERATION NUMBER   17

 *** INFO, negative eigenvalues in reduced matrix. Symmetry  3,  triplet       F Dimension of reduced matrix =    36

 GP * SOLUTION vector at frequency     0.00000 a.u.
 after   18 linear transformations is      1.68801766D+03
 INERTIA (POS,ZER,NEG) of reduced matrix is   35    0    1
 Determinant of reduced matrix is -1.09 * 10 ** -9.0

       No.  Residual tot.,    conf., and orb.    Bnorm      Frequency 
      ----------------------------------------------------------------
         1    3.60886D-02  3.39D-02  1.25D-02  5.14D+01    0.00000D+00

 *** THE REQUESTED    1 SOLUTION VECTORS CONVERGED

 Convergence of RSP solution vectors, threshold = 1.00D-03
 ---------------------------------------------------------------
 (dimension of paired reduced space:   36)
 RSP solution vector no.    1; norm of residual   7.02D-04

 *** RSPCTL MICROITERATIONS CONVERGED
    YDIPLEN     ZDIPLEN      freq1     freq2                Norm
 ---------------------------------------------------------------
                          0.000000  0.000000         51.44054304


 Perturbation symmetry.     KSYMOP:       1
 Perturbation spin symmetry.TRPLET:       F
 Orbital variables.         KZWOPT:    3003
 Configuration variables.   KZCONF:    1368
 Total number of variables. KZVAR :    4371

 MEMCHK ERROR, not a valid memget id in work(kalloc-1)
 Text from calling routine : PHPGET (called from MEMREL)
 KFIRST,KALLOC,IALLOC =         1     10312         6
 found memory checks:      4607182418800017408 ( value as real*8:    1.00000000000     )
 expected           :               1234567890

 Dump of allocations before invalid memget id:
 IALLOC #   IDENT           KBASE         Length
      1     PHP                 4          10000
      2     IPCNF           10007             50
      3     ONEBD           10060             81
      4     RJ              10144             81
      5     RK              10228             81
      6     ** KFREE        10312           -123


 QTRACE dump of internal trace stack

 ========================
      level    module
 ========================
          9    MEMCHK      
          8    MEMREL      
          7    RSPVAR      
          6    CRLRV2      
          5    CRVEC2      
          4    CRCALC      
          3    RSPDRV      
          2    DALTON      
          1    DALTON main 
 ========================


  --- SEVERE ERROR, PROGRAM WILL BE ABORTED ---
     Date and time (Linux)  : Tue Jun 18 14:29:44 2019
     Host name              : Lab2-333-NPs                            

 Reason: MEMCHK ERROR, not a valid memget id in work(kalloc-1)

  Total CPU  time used in DALTON:   2 hours 38 minutes  4 seconds
  Total wall time used in DALTON:   2 hours 38 minutes 15 seconds


 QTRACE dump of internal trace stack

 ========================
      level    module
 ========================
          9    MEMCHK      
          8    MEMREL      
          7    RSPVAR      
          6    CRLRV2      
          5    CRVEC2      
          4    CRCALC      
          3    RSPDRV      
          2    DALTON      
          1    DALTON main 
 ========================

