

     ************************************************************************
     *************** Dalton - An Electronic Structure Program ***************
     ************************************************************************

    This is output from DALTON release Dalton2018.1 (2019)
         ( Web site: http://daltonprogram.org )

   ----------------------------------------------------------------------------

    NOTE:
     
    Dalton is an experimental code for the evaluation of molecular
    properties using (MC)SCF, DFT, CI, and CC wave functions.
    The authors accept no responsibility for the performance of
    the code or for the correctness of the results.
     
    The code (in whole or part) is provided under a licence and
    is not to be reproduced for further distribution without
    the written permission of the authors or their representatives.
     
    See the home page "http://daltonprogram.org" for further information.
     
    If results obtained with this code are published,
    the appropriate citations would be both of:
     
       K. Aidas, C. Angeli, K. L. Bak, V. Bakken, R. Bast,
       L. Boman, O. Christiansen, R. Cimiraglia, S. Coriani,
       P. Dahle, E. K. Dalskov, U. Ekstroem,
       T. Enevoldsen, J. J. Eriksen, P. Ettenhuber, B. Fernandez,
       L. Ferrighi, H. Fliegl, L. Frediani, K. Hald, A. Halkier,
       C. Haettig, H. Heiberg, T. Helgaker, A. C. Hennum,
       H. Hettema, E. Hjertenaes, S. Hoest, I.-M. Hoeyvik,
       M. F. Iozzi, B. Jansik, H. J. Aa. Jensen, D. Jonsson,
       P. Joergensen, J. Kauczor, S. Kirpekar,
       T. Kjaergaard, W. Klopper, S. Knecht, R. Kobayashi, H. Koch,
       J. Kongsted, A. Krapp, K. Kristensen, A. Ligabue,
       O. B. Lutnaes, J. I. Melo, K. V. Mikkelsen, R. H. Myhre,
       C. Neiss, C. B. Nielsen, P. Norman, J. Olsen,
       J. M. H. Olsen, A. Osted, M. J. Packer, F. Pawlowski,
       T. B. Pedersen, P. F. Provasi, S. Reine, Z. Rinkevicius,
       T. A. Ruden, K. Ruud, V. Rybkin, P. Salek, C. C. M. Samson,
       A. Sanchez de Meras, T. Saue, S. P. A. Sauer,
       B. Schimmelpfennig, K. Sneskov, A. H. Steindal,
       K. O. Sylvester-Hvid, P. R. Taylor, A. M. Teale,
       E. I. Tellgren, D. P. Tew, A. J. Thorvaldsen, L. Thoegersen,
       O. Vahtras, M. A. Watson, D. J. D. Wilson, M. Ziolkowski
       and H. Agren,
       "The Dalton quantum chemistry program system",
       WIREs Comput. Mol. Sci. 2014, 4:269–284 (doi: 10.1002/wcms.1172)
     
    and
     
       Dalton, a molecular electronic structure program,
       Release Dalton2018.1 (2019), see http://daltonprogram.org
   ----------------------------------------------------------------------------

    Authors in alphabetical order (major contribution(s) in parenthesis):

  Kestutis Aidas,           Vilnius University,           Lithuania   (QM/MM)
  Celestino Angeli,         University of Ferrara,        Italy       (NEVPT2)
  Keld L. Bak,              UNI-C,                        Denmark     (AOSOPPA, non-adiabatic coupling, magnetic properties)
  Vebjoern Bakken,          University of Oslo,           Norway      (DALTON; geometry optimizer, symmetry detection)
  Radovan Bast,             UiT The Arctic U. of Norway,  Norway      (DALTON installation and execution frameworks)
  Pablo Baudin,             University of Valencia,       Spain       (Cholesky excitation energies)
  Linus Boman,              NTNU,                         Norway      (Cholesky decomposition and subsystems)
  Ove Christiansen,         Aarhus University,            Denmark     (CC module)
  Renzo Cimiraglia,         University of Ferrara,        Italy       (NEVPT2)
  Sonia Coriani,            Technical Univ. of Denmark,   Denmark     (CC module, MCD in RESPONS)
  Janusz Cukras,            University of Trieste,        Italy       (MChD in RESPONS)
  Paal Dahle,               University of Oslo,           Norway      (Parallelization)
  Erik K. Dalskov,          UNI-C,                        Denmark     (SOPPA)
  Thomas Enevoldsen,        Univ. of Southern Denmark,    Denmark     (SOPPA)
  Janus J. Eriksen,         Aarhus University,            Denmark     (Polarizable embedding model, TDA)
  Rasmus Faber,             University of Copenhagen,     Denmark     (Vib.avg. NMR with SOPPA, parallel AO-SOPPA)
  Tobias Fahleson,          KTH Stockholm,                Sweden      (Damped cubic response)
  Berta Fernandez,          U. of Santiago de Compostela, Spain       (doublet spin, ESR in RESPONS)
  Lara Ferrighi,            Aarhus University,            Denmark     (PCM Cubic response)
  Heike Fliegl,             University of Oslo,           Norway      (CCSD(R12))
  Luca Frediani,            UiT The Arctic U. of Norway,  Norway      (PCM)
  Bin Gao,                  UiT The Arctic U. of Norway,  Norway      (Gen1Int library)
  Christof Haettig,         Ruhr-University Bochum,       Germany     (CC module)
  Kasper Hald,              Aarhus University,            Denmark     (CC module)
  Asger Halkier,            Aarhus University,            Denmark     (CC module)
  Frederik Beyer Hansen,    University of Copenhagen,     Denmark     (Parallel AO-SOPPA)
  Erik D. Hedegaard,        Univ. of Southern Denmark,    Denmark     (Polarizable embedding model, QM/MM)
  Hanne Heiberg,            University of Oslo,           Norway      (geometry analysis, selected one-electron integrals)
  Trygve Helgaker,          University of Oslo,           Norway      (DALTON; ABACUS, ERI, DFT modules, London, and much more)
  Alf Christian Hennum,     University of Oslo,           Norway      (Parity violation)
  Hinne Hettema,            University of Auckland,       New Zealand (quadratic response in RESPONS; SIRIUS supersymmetry)
  Eirik Hjertenaes,         NTNU,                         Norway      (Cholesky decomposition)
  Pi A. B. Haase,           University of Copenhagen,     Denmark     (Triplet AO-SOPPA)
  Maria Francesca Iozzi,    University of Oslo,           Norway      (RPA)
  Christoph Jacob           TU Braunschweig               Germany     (Frozen density embedding model)
  Brano Jansik              Technical Univ. of Ostrava    Czech Rep.  (DFT cubic response)
  Hans Joergen Aa. Jensen,  Univ. of Southern Denmark,    Denmark     (DALTON; SIRIUS, RESPONS, ABACUS modules, London, and much more)
  Dan Jonsson,              UiT The Arctic U. of Norway,  Norway      (cubic response in RESPONS module)
  Poul Joergensen,          Aarhus University,            Denmark     (RESPONS, ABACUS, and CC modules)
  Maciej Kaminski,          University of Warsaw,         Poland      (CPPh in RESPONS)
  Joanna Kauczor,           Linkoeping University,        Sweden      (Complex polarization propagator (CPP) module)
  Sheela Kirpekar,          Univ. of Southern Denmark,    Denmark     (Mass-velocity & Darwin integrals)
  Wim Klopper,              KIT Karlsruhe,                Germany     (R12 code in CC, SIRIUS, and ABACUS modules)
  Stefan Knecht,            ETH Zurich,                   Switzerland (Parallel CI and MCSCF)
  Rika Kobayashi,           Australian National Univ.,    Australia   (DIIS in CC, London in MCSCF)
  Henrik Koch,              NTNU,                         Norway      (CC module, Cholesky decomposition)
  Jacob Kongsted,           Univ. of Southern Denmark,    Denmark     (Polarizable embedding model, QM/MM)
  Andrea Ligabue,           University of Modena,         Italy       (CTOCD, AOSOPPA)
  Nanna H. List             Univ. of Southern Denmark,    Denmark     (Polarizable embedding model)
  Ola B. Lutnaes,           University of Oslo,           Norway      (DFT Hessian)
  Juan I. Melo,             University of Buenos Aires,   Argentina   (LRESC, Relativistic Effects on NMR Shieldings)
  Kurt V. Mikkelsen,        University of Copenhagen,     Denmark     (MC-SCRF and QM/MM)
  Rolf H. Myhre,            NTNU,                         Norway      (Subsystems and CC3)
  Christian Neiss,          Univ. Erlangen-Nuernberg,     Germany     (CCSD(R12))
  Christian B. Nielsen,     University of Copenhagen,     Denmark     (QM/MM)
  Patrick Norman,           KTH Stockholm,                Sweden      (Cubic response and complex frequency response in RESPONS)
  Jeppe Olsen,              Aarhus University,            Denmark     (SIRIUS CI/density modules)
  Jogvan Magnus H. Olsen,   Univ. of Southern Denmark,    Denmark     (Polarizable embedding model, QM/MM)
  Anders Osted,             Copenhagen University,        Denmark     (QM/MM)
  Martin J. Packer,         University of Sheffield,      UK          (SOPPA)
  Filip Pawlowski,          Kazimierz Wielki University,  Poland      (CC3)
  Morten N. Pedersen,       Univ. of Southern Denmark,    Denmark     (Polarizable embedding model)
  Thomas B. Pedersen,       University of Oslo,           Norway      (Cholesky decomposition)
  Patricio F. Provasi,      University of Northeastern,   Argentina   (Analysis of coupling constants in localized orbitals)
  Zilvinas Rinkevicius,     KTH Stockholm,                Sweden      (open-shell DFT, ESR)
  Elias Rudberg,            KTH Stockholm,                Sweden      (DFT grid and basis info)
  Torgeir A. Ruden,         University of Oslo,           Norway      (Numerical derivatives in ABACUS)
  Kenneth Ruud,             UiT The Arctic U. of Norway,  Norway      (DALTON; ABACUS magnetic properties and much more)
  Pawel Salek,              KTH Stockholm,                Sweden      (DALTON; DFT code)
  Claire C. M. Samson       University of Karlsruhe       Germany     (Boys localization, r12 integrals in ERI)
  Alfredo Sanchez de Meras, University of Valencia,       Spain       (CC module, Cholesky decomposition)
  Trond Saue,               Paul Sabatier University,     France      (direct Fock matrix construction)
  Stephan P. A. Sauer,      University of Copenhagen,     Denmark     (SOPPA(CCSD), SOPPA prop., AOSOPPA, vibrational g-factors)
  Andre S. P. Gomes,        CNRS/Universite de Lille,     France      (Frozen density embedding model)
  Bernd Schimmelpfennig,    Forschungszentrum Karlsruhe,  Germany     (AMFI module)
  Kristian Sneskov,         Aarhus University,            Denmark     (Polarizable embedding model, QM/MM)
  Arnfinn H. Steindal,      UiT The Arctic U. of Norway,  Norway      (parallel QM/MM, Polarizable embedding model)
  Casper Steinmann,         Univ. of Southern Denmark,    Denmark     (QFIT, Polarizable embedding model)
  K. O. Sylvester-Hvid,     University of Copenhagen,     Denmark     (MC-SCRF)
  Peter R. Taylor,          VLSCI/Univ. of Melbourne,     Australia   (Symmetry handling ABACUS, integral transformation)
  Andrew M. Teale,          University of Nottingham,     England     (DFT-AC, DFT-D)
  David P. Tew,             University of Bristol,        England     (CCSD(R12))
  Olav Vahtras,             KTH Stockholm,                Sweden      (triplet response, spin-orbit, ESR, TDDFT, open-shell DFT)
  Lucas Visscher,           Vrije Universiteit Amsterdam, Netherlands (Frozen density embedding model)
  David J. Wilson,          La Trobe University,          Australia   (DFT Hessian and DFT magnetizabilities)
  Hans Agren,               KTH Stockholm,                Sweden      (SIRIUS module, RESPONS, MC-SCRF solvation model)
 --------------------------------------------------------------------------------

     Date and time (Linux)  : Wed Jun 26 11:04:14 2019
     Host name              : Lab2-333-NPs                            

 * Work memory size             :  1536000000 = 11.444 gigabytes.

 * Directories for basis set searches:
   1) /home/lab333/dalton/build_2018_atlas
   2) /home/lab333/dalton/build_2018_atlas/basis


Compilation information
-----------------------

 Who compiled             | lab333
 Host                     | Lab2-333-NPs
 System                   | Linux-4.4.0-43-Microsoft
 CMake generator          | Unix Makefiles
 Processor                | x86_64
 64-bit integers          | OFF
 MPI                      | OFF
 Fortran compiler         | /usr/bin/gfortran
 Fortran compiler version | GNU Fortran (Ubuntu 7.3.0-27ubuntu1~18.04) 7.3.0
 C compiler               | /usr/bin/gcc
 C compiler version       | gcc (Ubuntu 7.3.0-27ubuntu1~18.04) 7.3.0
 C++ compiler             | /usr/bin/g++
 C++ compiler version     | g++ (Ubuntu 7.3.0-27ubuntu1~18.04) 7.3.0
 BLAS                     | /usr/lib/x86_64-linux-gnu/libf77blas.so;/usr/lib/x
                          | 86_64-linux-gnu/libcblas.so;/usr/lib/x86_64-linux-
                          | gnu/libatlas.so
 LAPACK                   | /usr/lib/x86_64-linux-gnu/libatlas.so;/usr/lib/x86
                          | _64-linux-gnu/atlas/liblapack.so
 Static linking           | OFF
 Last Git revision        | da625bf48c74028e805616daee31bc5d76b3a20d
 Git branch               | (HEAD detached at Dalton2018.1)
 Configuration time       | 2019-01-18 10:20:51.437510


   Content of the .dal input file
 ----------------------------------

**DALTON INPUT
.RUN RESPONSE
.DIRECT
**WAVE FUNCTIONS
.HF
.MP2
*CONFIGURATION INPUT
.SPIN MULTIPLICITY
1
.SYMMETRY
1
.INACTIVE ORBITALS
15 10 2 0
.CAS SPACE
2 1 1 2
.ELECTRONS
10
*ORBITAL INPUT
.MOSTART
.HUCKEL
*OPTIMIZATION
.DETERMINANTS
*CI VECTOR
.PLUS COMBINATIONS
**END OF DALTON INPUT


   Content of the .mol file
 ----------------------------

BASIS
aug-cc-pCVDZ
 nitrobenzene
 Generated by the Dalton Input File Plugin for Avogadro
Atomtypes=4 Angstrom Generators=2 X Y
Charge=6.0 Atoms=4
C        0.0000000000            0.0000000000           -0.0265759623
C       -1.2190534920            0.0000000000           -0.6979856948
C       -1.2105095870            0.0000000000           -2.0897394457
C        0.0000000000            0.0000000000           -2.7841484631
Charge=7.0 Atoms=1
N        0.0000000000            0.0000000000            1.4549291696
Charge=8.0 Atoms=1
O       -1.0847503743            0.0000000000            2.0235779798
Charge=1.0 Atoms=3
H       -2.1410602955            0.0000000000           -0.1327964319
H       -2.1492827751            0.0000000000           -2.6311811056
H        0.0000000000            0.0000000000           -3.8683953478


       *******************************************************************
       *********** Output from DALTON general input processing ***********
       *******************************************************************

 --------------------------------------------------------------------------------
   Overall default print level:    0
   Print level for DALTON.STAT:    1

    AO-direct calculation (in sections where implemented)
    HERMIT 1- and 2-electron integral sections will be executed
    "Old" integral transformation used (limited to max 255 basis functions)
    Wave function sections will be executed (SIRIUS module)
    Dynamic molecular response properties section will be executed (RESPONSE module)
 --------------------------------------------------------------------------------


   ****************************************************************************
   *************** Output of molecule and basis set information ***************
   ****************************************************************************


    The two title cards from your ".mol" input:
    ------------------------------------------------------------------------
 1:  nitrobenzene                                                           
 2:  Generated by the Dalton Input File Plugin for Avogadro                 
    ------------------------------------------------------------------------

  Coordinates are entered in Angstrom and converted to atomic units.
          - Conversion factor : 1 bohr = 0.52917721 A

  Atomic type no.    1
  --------------------
  Nuclear charge:   6.00000
  Number of symmetry independent centers:    4
  Number of basis sets to read;    2
  Basis set file used for this atomic type with Z =   6 :
     "/home/lab333/dalton/build_2018_atlas/basis/aug-cc-pCVDZ"

  Atomic type no.    2
  --------------------
  Nuclear charge:   7.00000
  Number of symmetry independent centers:    1
  Number of basis sets to read;    2
  Basis set file used for this atomic type with Z =   7 :
     "/home/lab333/dalton/build_2018_atlas/basis/aug-cc-pCVDZ"

  Atomic type no.    3
  --------------------
  Nuclear charge:   8.00000
  Number of symmetry independent centers:    1
  Number of basis sets to read;    2
  Basis set file used for this atomic type with Z =   8 :
     "/home/lab333/dalton/build_2018_atlas/basis/aug-cc-pCVDZ"

  Atomic type no.    4
  --------------------
  Nuclear charge:   1.00000
  Number of symmetry independent centers:    3
  Number of basis sets to read;    2
  Basis set file used for this atomic type with Z =   1 :
     "/home/lab333/dalton/build_2018_atlas/basis/aug-cc-pCVDZ"


                         SYMGRP: Point group information
                         -------------------------------

@    Point group: C2v

@  * The irrep name for each symmetry:    1: A1     2: B1     3: B2     4: A2 

   * The point group was generated by:

      Reflection in the yz-plane
      Reflection in the xz-plane

   * Group multiplication table

        |  E   C2z  Oxz  Oyz
   -----+--------------------
     E  |  E   C2z  Oxz  Oyz
    C2z | C2z   E   Oyz  Oxz
    Oxz | Oxz  Oyz   E   C2z
    Oyz | Oyz  Oxz  C2z   E 

   * Character table

        |  E   C2z  Oxz  Oyz
   -----+--------------------
    A1  |   1    1    1    1
    B1  |   1   -1    1   -1
    B2  |   1   -1   -1    1
    A2  |   1    1   -1   -1

   * Direct product table

        | A1   B1   B2   A2 
   -----+--------------------
    A1  | A1   B1   B2   A2 
    B1  | B1   A1   A2   B2 
    B2  | B2   A2   A1   B1 
    A2  | A2   B2   B1   A1 


                                 Isotopic Masses
                                 ---------------

                           C          12.000000
                           C   _1     12.000000
                           C   _2     12.000000
                           C   _1     12.000000
                           C   _2     12.000000
                           C          12.000000
                           N          14.003074
                           O   _1     15.994915
                           O   _2     15.994915
                           H   _1      1.007825
                           H   _2      1.007825
                           H   _1      1.007825
                           H   _2      1.007825
                           H           1.007825

                       Total mass:   123.032029 amu
                       Natural abundance:  92.716 %

 Center-of-mass coordinates (a.u.):    0.000000    0.000000   -0.383938


  Atoms and basis sets
  --------------------

  Number of atom types :    4
  Total number of atoms:   14

  Basis set used is "aug-cc-pCVDZ" from the basis set library.

  label    atoms   charge   prim   cont     basis
  ----------------------------------------------------------------------
  C           6    6.0000    39    27      [11s6p2d|5s4p2d]                                   
  N           1    7.0000    39    27      [11s6p2d|5s4p2d]                                   
  O           2    8.0000    39    27      [11s6p2d|5s4p2d]                                   
  H           5    1.0000    11     9      [5s2p|3s2p]                                        
  ----------------------------------------------------------------------
  total:     14   64.0000   406   288
  ----------------------------------------------------------------------
  Spherical harmonic basis used.

  Threshold for neglecting AO integrals:  1.00D-12


  Symmetry Coordinates
  --------------------

  Number of coordinates in each symmetry:    14   14    9    5


   Interatomic separations (in Angstrom):
   --------------------------------------

            C           C   _1      C   _2      C   _1      C   _2      C     
            ------      ------      ------      ------      ------      ------
 C     :    0.000000
 C   _1:    1.391719    0.000000
 C   _2:    1.391719    2.438107    0.000000
 C   _1:    2.392065    1.391780    2.799956    0.000000
 C   _2:    2.392065    2.799956    1.391780    2.421019    0.000000
 C     :    2.757573    2.416230    2.416230    1.395542    1.395542    0.000000
 N     :    1.481505    2.474093    2.474093    3.745665    3.745665    4.239078
 O   _1:    2.319443    2.724875    3.565729    4.115239    4.710371    4.928582
 O   _2:    2.319443    3.565729    2.724875    4.710371    4.115239    4.928582
 H   _1:    2.143694    1.081451    3.407316    2.166922    3.881063    3.407904
 H   _2:    2.143694    3.407316    1.081451    3.881063    2.166922    3.407904
 H   _1:    3.376890    2.145360    3.883675    1.083722    3.403140    2.154719
 H   _2:    3.376890    3.883675    2.145360    3.403140    1.083722    2.154719
 H     :    3.841819    3.396703    3.396703    2.151500    2.151500    1.084247

            N           O   _1      O   _2      H   _1      H   _2      H   _1
            ------      ------      ------      ------      ------      ------
 N     :    0.000000
 O   _1:    1.224763    0.000000
 O   _2:    1.224763    2.169501    0.000000
 H   _1:    2.665523    2.401196    3.880181    0.000000
 H   _2:    2.665523    3.880181    2.401196    4.282121    0.000000
 H   _1:    4.616894    4.774936    5.667958    2.498398    4.964773    0.000000
 H   _2:    4.616894    5.667958    4.774936    4.964773    2.498398    4.298566
 H     :    5.323325    5.990996    5.990996    4.305675    4.305675    2.479943

            H   _2      H     
            ------      ------
 H   _2:    0.000000
 H     :    2.479943    0.000000


  Max    interatomic separation is    5.9910 Angstrom (   11.3213 Bohr)
  between atoms   14 and    8, "H     " and "O   _1".

  Min HX interatomic separation is    1.0815 Angstrom (    2.0436 Bohr)

  Min YX interatomic separation is    1.2248 Angstrom (    2.3145 Bohr)


  Bond distances (Angstrom):
  --------------------------

                  atom 1     atom 2       distance
                  ------     ------       --------
  bond distance:  C   _1     C            1.391719
  bond distance:  C   _2     C            1.391719
  bond distance:  C   _1     C   _1       1.391780
  bond distance:  C   _2     C   _2       1.391780
  bond distance:  C          C   _1       1.395542
  bond distance:  C          C   _2       1.395542
  bond distance:  N          C            1.481505
  bond distance:  O   _1     N            1.224763
  bond distance:  O   _2     N            1.224763
  bond distance:  H   _1     C   _1       1.081451
  bond distance:  H   _2     C   _2       1.081451
  bond distance:  H   _1     C   _1       1.083722
  bond distance:  H   _2     C   _2       1.083722
  bond distance:  H          C            1.084247


  Bond angles (degrees):
  ----------------------

                  atom 1     atom 2     atom 3         angle
                  ------     ------     ------         -----
  bond angle:     C   _1     C          C   _2       122.311
  bond angle:     C   _1     C          N            118.844
  bond angle:     C   _2     C          N            118.844
  bond angle:     C          C   _1     C   _1       118.493
  bond angle:     C          C   _1     H   _1       119.647
  bond angle:     C   _1     C   _1     H   _1       121.860
  bond angle:     C          C   _2     C   _2       118.493
  bond angle:     C          C   _2     H   _2       119.647
  bond angle:     C   _2     C   _2     H   _2       121.860
  bond angle:     C   _1     C   _1     C            120.192
  bond angle:     C   _1     C   _1     H   _1       119.623
  bond angle:     C          C   _1     H   _1       120.185
  bond angle:     C   _2     C   _2     C            120.192
  bond angle:     C   _2     C   _2     H   _2       119.623
  bond angle:     C          C   _2     H   _2       120.185
  bond angle:     C   _1     C          C   _2       120.319
  bond angle:     C   _1     C          H            119.841
  bond angle:     C   _2     C          H            119.841
  bond angle:     C          N          O   _1       117.664
  bond angle:     C          N          O   _2       117.664
  bond angle:     O   _1     N          O   _2       124.671




 Principal moments of inertia (u*A**2) and principal axes
 --------------------------------------------------------

   IA     127.027245          0.000000    0.000000    1.000000
   IB     394.156158          1.000000    0.000000    0.000000
   IC     521.183403          0.000000    1.000000    0.000000


 Rotational constants
 --------------------

@    The molecule is planar.

               A                   B                   C

           3978.5088           1282.1797            969.6759 MHz
            0.132709            0.042769            0.032345 cm-1


@  Nuclear repulsion energy :  412.135415267067 Hartree


  Symmetry Orbitals
  -----------------

  Number of orbitals in each symmetry:         115   91   48   34


  Symmetry  A1 ( 1)

    1     C        1s         1
    2     C        1s         2
    3     C        1s         3
    4     C        1s         4
    5     C        1s         5
    6     C        2pz        8
    7     C        2pz       11
    8     C        2pz       14
    9     C        2pz       17
   10     C        3d0       20
   11     C        3d2+      22
   12     C        3d0       25
   13     C        3d2+      27
   14     C        1s        28 +   29
   15     C        1s        30 +   31
   16     C        1s        32 +   33
   17     C        1s        34 +   35
   18     C        1s        36 +   37
   19     C        2px       38 -   39
   20     C        2pz       42 +   43
   21     C        2px       44 -   45
   22     C        2pz       48 +   49
   23     C        2px       50 -   51
   24     C        2pz       54 +   55
   25     C        2px       56 -   57
   26     C        2pz       60 +   61
   27     C        3d0       66 +   67
   28     C        3d1+      68 -   69
   29     C        3d2+      70 +   71
   30     C        3d0       76 +   77
   31     C        3d1+      78 -   79
   32     C        3d2+      80 +   81
   33     C        1s        82 +   83
   34     C        1s        84 +   85
   35     C        1s        86 +   87
   36     C        1s        88 +   89
   37     C        1s        90 +   91
   38     C        2px       92 -   93
   39     C        2pz       96 +   97
   40     C        2px       98 -   99
   41     C        2pz      102 +  103
   42     C        2px      104 -  105
   43     C        2pz      108 +  109
   44     C        2px      110 -  111
   45     C        2pz      114 +  115
   46     C        3d0      120 +  121
   47     C        3d1+     122 -  123
   48     C        3d2+     124 +  125
   49     C        3d0      130 +  131
   50     C        3d1+     132 -  133
   51     C        3d2+     134 +  135
   52     C        1s       136
   53     C        1s       137
   54     C        1s       138
   55     C        1s       139
   56     C        1s       140
   57     C        2pz      143
   58     C        2pz      146
   59     C        2pz      149
   60     C        2pz      152
   61     C        3d0      155
   62     C        3d2+     157
   63     C        3d0      160
   64     C        3d2+     162
   65     N        1s       163
   66     N        1s       164
   67     N        1s       165
   68     N        1s       166
   69     N        1s       167
   70     N        2pz      170
   71     N        2pz      173
   72     N        2pz      176
   73     N        2pz      179
   74     N        3d0      182
   75     N        3d2+     184
   76     N        3d0      187
   77     N        3d2+     189
   78     O        1s       190 +  191
   79     O        1s       192 +  193
   80     O        1s       194 +  195
   81     O        1s       196 +  197
   82     O        1s       198 +  199
   83     O        2px      200 -  201
   84     O        2pz      204 +  205
   85     O        2px      206 -  207
   86     O        2pz      210 +  211
   87     O        2px      212 -  213
   88     O        2pz      216 +  217
   89     O        2px      218 -  219
   90     O        2pz      222 +  223
   91     O        3d0      228 +  229
   92     O        3d1+     230 -  231
   93     O        3d2+     232 +  233
   94     O        3d0      238 +  239
   95     O        3d1+     240 -  241
   96     O        3d2+     242 +  243
   97     H        1s       244 +  245
   98     H        1s       246 +  247
   99     H        1s       248 +  249
  100     H        2px      250 -  251
  101     H        2pz      254 +  255
  102     H        2px      256 -  257
  103     H        2pz      260 +  261
  104     H        1s       262 +  263
  105     H        1s       264 +  265
  106     H        1s       266 +  267
  107     H        2px      268 -  269
  108     H        2pz      272 +  273
  109     H        2px      274 -  275
  110     H        2pz      278 +  279
  111     H        1s       280
  112     H        1s       281
  113     H        1s       282
  114     H        2pz      285
  115     H        2pz      288


  Symmetry  B1 ( 2)

  116     C        2px        6
  117     C        2px        9
  118     C        2px       12
  119     C        2px       15
  120     C        3d1+      21
  121     C        3d1+      26
  122     C        1s        28 -   29
  123     C        1s        30 -   31
  124     C        1s        32 -   33
  125     C        1s        34 -   35
  126     C        1s        36 -   37
  127     C        2px       38 +   39
  128     C        2pz       42 -   43
  129     C        2px       44 +   45
  130     C        2pz       48 -   49
  131     C        2px       50 +   51
  132     C        2pz       54 -   55
  133     C        2px       56 +   57
  134     C        2pz       60 -   61
  135     C        3d0       66 -   67
  136     C        3d1+      68 +   69
  137     C        3d2+      70 -   71
  138     C        3d0       76 -   77
  139     C        3d1+      78 +   79
  140     C        3d2+      80 -   81
  141     C        1s        82 -   83
  142     C        1s        84 -   85
  143     C        1s        86 -   87
  144     C        1s        88 -   89
  145     C        1s        90 -   91
  146     C        2px       92 +   93
  147     C        2pz       96 -   97
  148     C        2px       98 +   99
  149     C        2pz      102 -  103
  150     C        2px      104 +  105
  151     C        2pz      108 -  109
  152     C        2px      110 +  111
  153     C        2pz      114 -  115
  154     C        3d0      120 -  121
  155     C        3d1+     122 +  123
  156     C        3d2+     124 -  125
  157     C        3d0      130 -  131
  158     C        3d1+     132 +  133
  159     C        3d2+     134 -  135
  160     C        2px      141
  161     C        2px      144
  162     C        2px      147
  163     C        2px      150
  164     C        3d1+     156
  165     C        3d1+     161
  166     N        2px      168
  167     N        2px      171
  168     N        2px      174
  169     N        2px      177
  170     N        3d1+     183
  171     N        3d1+     188
  172     O        1s       190 -  191
  173     O        1s       192 -  193
  174     O        1s       194 -  195
  175     O        1s       196 -  197
  176     O        1s       198 -  199
  177     O        2px      200 +  201
  178     O        2pz      204 -  205
  179     O        2px      206 +  207
  180     O        2pz      210 -  211
  181     O        2px      212 +  213
  182     O        2pz      216 -  217
  183     O        2px      218 +  219
  184     O        2pz      222 -  223
  185     O        3d0      228 -  229
  186     O        3d1+     230 +  231
  187     O        3d2+     232 -  233
  188     O        3d0      238 -  239
  189     O        3d1+     240 +  241
  190     O        3d2+     242 -  243
  191     H        1s       244 -  245
  192     H        1s       246 -  247
  193     H        1s       248 -  249
  194     H        2px      250 +  251
  195     H        2pz      254 -  255
  196     H        2px      256 +  257
  197     H        2pz      260 -  261
  198     H        1s       262 -  263
  199     H        1s       264 -  265
  200     H        1s       266 -  267
  201     H        2px      268 +  269
  202     H        2pz      272 -  273
  203     H        2px      274 +  275
  204     H        2pz      278 -  279
  205     H        2px      283
  206     H        2px      286


  Symmetry  B2 ( 3)

  207     C        2py        7
  208     C        2py       10
  209     C        2py       13
  210     C        2py       16
  211     C        3d1-      19
  212     C        3d1-      24
  213     C        2py       40 +   41
  214     C        2py       46 +   47
  215     C        2py       52 +   53
  216     C        2py       58 +   59
  217     C        3d2-      62 -   63
  218     C        3d1-      64 +   65
  219     C        3d2-      72 -   73
  220     C        3d1-      74 +   75
  221     C        2py       94 +   95
  222     C        2py      100 +  101
  223     C        2py      106 +  107
  224     C        2py      112 +  113
  225     C        3d2-     116 -  117
  226     C        3d1-     118 +  119
  227     C        3d2-     126 -  127
  228     C        3d1-     128 +  129
  229     C        2py      142
  230     C        2py      145
  231     C        2py      148
  232     C        2py      151
  233     C        3d1-     154
  234     C        3d1-     159
  235     N        2py      169
  236     N        2py      172
  237     N        2py      175
  238     N        2py      178
  239     N        3d1-     181
  240     N        3d1-     186
  241     O        2py      202 +  203
  242     O        2py      208 +  209
  243     O        2py      214 +  215
  244     O        2py      220 +  221
  245     O        3d2-     224 -  225
  246     O        3d1-     226 +  227
  247     O        3d2-     234 -  235
  248     O        3d1-     236 +  237
  249     H        2py      252 +  253
  250     H        2py      258 +  259
  251     H        2py      270 +  271
  252     H        2py      276 +  277
  253     H        2py      284
  254     H        2py      287


  Symmetry  A2 ( 4)

  255     C        3d2-      18
  256     C        3d2-      23
  257     C        2py       40 -   41
  258     C        2py       46 -   47
  259     C        2py       52 -   53
  260     C        2py       58 -   59
  261     C        3d2-      62 +   63
  262     C        3d1-      64 -   65
  263     C        3d2-      72 +   73
  264     C        3d1-      74 -   75
  265     C        2py       94 -   95
  266     C        2py      100 -  101
  267     C        2py      106 -  107
  268     C        2py      112 -  113
  269     C        3d2-     116 +  117
  270     C        3d1-     118 -  119
  271     C        3d2-     126 +  127
  272     C        3d1-     128 -  129
  273     C        3d2-     153
  274     C        3d2-     158
  275     N        3d2-     180
  276     N        3d2-     185
  277     O        2py      202 -  203
  278     O        2py      208 -  209
  279     O        2py      214 -  215
  280     O        2py      220 -  221
  281     O        3d2-     224 +  225
  282     O        3d1-     226 -  227
  283     O        3d2-     234 +  235
  284     O        3d1-     236 -  237
  285     H        2py      252 -  253
  286     H        2py      258 -  259
  287     H        2py      270 -  271
  288     H        2py      276 -  277

  Symmetries of electric field:  B1 (2)  B2 (3)  A1 (1)

  Symmetries of magnetic field:  B2 (3)  B1 (2)  A2 (4)


                     .---------------------------------------.
                     | Starting in Integral Section (HERMIT) |
                     `---------------------------------------'



 ***************************************************************************************
 ****************** Output from **INTEGRALS input processing (HERMIT) ******************
 ***************************************************************************************


 - Using defaults, no **INTEGRALS input found

 Default print level:        1

 Calculation of one-electron Hamiltonian integrals.

 Center of mass  (bohr):      0.000000000000      0.000000000000     -0.383938108481
 Operator center (bohr):      0.000000000000      0.000000000000      0.000000000000
 Gauge origin    (bohr):      0.000000000000      0.000000000000      0.000000000000
 Dipole origin   (bohr):      0.000000000000      0.000000000000      0.000000000000


     ************************************************************************
     ************************** Output from HERINT **************************
     ************************************************************************



                      Nuclear contribution to dipole moments
                      --------------------------------------

                 au               Debye          C m (/(10**-30)

      z    -32.41191504       -82.38286538      -274.79965949


  Time used in GABGEN     is       0.11 seconds
  Total CPU  time used in HERMIT:   0.39 seconds
  Total wall time used in HERMIT:   0.39 seconds


                        .----------------------------------.
                        | End of Integral Section (HERMIT) |
                        `----------------------------------'



                   .--------------------------------------------.
                   | Starting in Wave Function Section (SIRIUS) |
                   `--------------------------------------------'


 *** Output from Huckel module :

     Using EWMO model:          F
     Using EHT  model:          T
     Number of Huckel orbitals each symmetry:   24   17    6    3

 Huckel EHT eigenvalues for symmetry :  1
          -20.695822     -15.706036     -11.414993     -11.394585     -11.376746
          -11.362597      -1.748744      -1.555382      -1.196259      -0.941364
           -0.817059      -0.782210      -0.643577      -0.589224      -0.493397
           -0.429144      -0.328230      -0.246947      -0.225806      -0.213738
           -0.205823      -0.178738      -0.166343      -0.160473

 Huckel EHT eigenvalues for symmetry :  2
          -20.700625     -11.396474     -11.377857      -1.399983      -1.203200
           -0.879843      -0.646405      -0.569964      -0.526471      -0.479328
           -0.414891      -0.271537      -0.213209      -0.202807      -0.176234
           -0.165379      -0.163255

 Huckel EHT eigenvalues for symmetry :  3
           -0.800032      -0.672072      -0.465792      -0.384453      -0.281766
           -0.236539

 Huckel EHT eigenvalues for symmetry :  4
           -0.592875      -0.460139      -0.288832

 **********************************************************************
 *SIRIUS* a direct, restricted step, second order MCSCF program       *
 **********************************************************************

 
     Date and time (Linux)  : Wed Jun 26 11:04:14 2019
     Host name              : Lab2-333-NPs                            

 Title lines from ".mol" input file:
      nitrobenzene                                                           
      Generated by the Dalton Input File Plugin for Avogadro                 

 Print level on unit LUPRI =   2 is   0
 Print level on unit LUW4  =   2 is   5

@    MP2, closed-shell Moeller-Plesset second-order calculation.

@    This is a combination run starting with
@              a restricted, closed shell Hartree-Fock calculation

 Fock matrices are calculated directly without use of integrals on disk.

 Initial molecular orbitals are obtained according to
 ".MOSTART EHT   " input option

     Wave function specification
     ============================
@    Wave function type        --- MP2 ---
@    Number of closed shell electrons          64
@    Number of electrons in active shells       0
@    Total charge of the molecule               0

@    Spin multiplicity and 2 M_S                1         0
@    Total number of symmetries                 4 (point group: C2v)
@    Reference state symmetry                   1 (irrep name : A1 )

     Orbital specifications
     ======================
@    Abelian symmetry species          All |    1    2    3    4
@                                          |  A1   B1   B2   A2 
                                       --- |  ---  ---  ---  ---
@    Total number of orbitals          288 |  115   91   48   34
@    Number of basis functions         288 |  115   91   48   34

      ** Automatic occupation of RHF orbitals **

      -- Initial occupation of symmetries is determined from extended Huckel guess.           
      -- Initial occupation of symmetries is :
@    Occupied SCF orbitals              32 |   16   11    3    2

     Maximum number of Fock   iterations      0
     Maximum number of DIIS   iterations     60
     Maximum number of QC-SCF iterations     60
     Threshold for SCF convergence     1.00D-06

    INFORMATION: Switched to "new" integral transformation (from 1988 ;-) )
    because more than 255 basis functions.


 ***********************************************
 ***** DIIS acceleration of SCF iterations *****
 ***********************************************

 C1-DIIS algorithm; max error vectors =    8

 Automatic occupation of symmetries with  64 electrons.

 Iter     Total energy    Error norm  Delta(E)    SCF occupation
 -----------------------------------------------------------------------------
   1  Screening settings (-IFTHRS, JTDIIS, DIFDEN, times)   -8    1    T  2.70D+01  2.70D+01
@  1  -432.255033762       6.47D+00  -4.32D+02    16  11   3   2
      Virial theorem: -V/T =      1.998650
@    MULPOP   C       0.34; C   _1  0.26; C   _2  0.26; C   _1  0.24; C   _2  0.24; C       0.36; N       1.30; O   _1 -1.02; O   _2 -1.02; H   _1 -0.20; 
@             H   _2 -0.20; H   _1 -0.18; H   _2 -0.18; H      -0.19; 
   1  Level shift: doubly occupied orbital energies shifted by -2.00D-01
 -----------------------------------------------------------------------------
   2  Screening settings (-IFTHRS, JTDIIS, DIFDEN, times)   -8    2    T  2.70D+01  2.70D+01
@  2  -433.840473573       2.93D+00  -1.59D+00    16  11   3   2
      Virial theorem: -V/T =      2.001483
@    MULPOP   C       0.91; C   _1  0.35; C   _2  0.35; C   _1  0.35; C   _2  0.35; C       0.38; N       0.33; O   _1 -0.52; O   _2 -0.52; H   _1 -0.40; 
@             H   _2 -0.40; H   _1 -0.40; H   _2 -0.40; H      -0.40; 
   2  Level shift: doubly occupied orbital energies shifted by -1.00D-01
 -----------------------------------------------------------------------------
   3  Screening settings (-IFTHRS, JTDIIS, DIFDEN, times)   -8    3    T  2.70D+01  2.70D+01
@  3  -434.207204089       7.17D-01  -3.67D-01    16  11   3   2
      Virial theorem: -V/T =      2.000864
@    MULPOP   C       1.68; C   _1  0.24; C   _2  0.24; C   _1  0.44; C   _2  0.44; C       0.30; N       0.67; O   _1 -0.89; O   _2 -0.89; H   _1 -0.45; 
@             H   _2 -0.45; H   _1 -0.44; H   _2 -0.44; H      -0.44; 
   3  Level shift: doubly occupied orbital energies shifted by -2.50D-02
 -----------------------------------------------------------------------------
   4  Screening settings (-IFTHRS, JTDIIS, DIFDEN, times)   -8    4    T  2.69D+01  2.69D+01
@  4  -434.232828188       1.86D-01  -2.56D-02    16  11   3   2
      Virial theorem: -V/T =      2.002656
@    MULPOP   C       1.76; C   _1  0.19; C   _2  0.19; C   _1  0.51; C   _2  0.51; C       0.28; N       0.54; O   _1 -0.86; O   _2 -0.86; H   _1 -0.45; 
@             H   _2 -0.45; H   _1 -0.46; H   _2 -0.46; H      -0.46; 
   4  Level shift: doubly occupied orbital energies shifted by -1.25D-02
 -----------------------------------------------------------------------------
   5  Screening settings (-IFTHRS, JTDIIS, DIFDEN, times)  -10    5    F  2.72D+01  2.72D+01
@  5  -434.235503640       5.52D-02  -2.68D-03    16  11   3   2
      Virial theorem: -V/T =      2.002075
@    MULPOP   C       1.80; C   _1  0.17; C   _2  0.17; C   _1  0.51; C   _2  0.51; C       0.26; N       0.53; O   _1 -0.87; O   _2 -0.87; H   _1 -0.44; 
@             H   _2 -0.44; H   _1 -0.44; H   _2 -0.44; H      -0.44; 
 -----------------------------------------------------------------------------
   6  Screening settings (-IFTHRS, JTDIIS, DIFDEN, times)  -10    6    T  2.69D+01  2.69D+01
@  6  -434.235840724       1.54D-02  -3.37D-04    16  11   3   2
      Virial theorem: -V/T =      2.001997
@    MULPOP   C       1.81; C   _1  0.16; C   _2  0.16; C   _1  0.51; C   _2  0.51; C       0.26; N       0.51; O   _1 -0.86; O   _2 -0.86; H   _1 -0.44; 
@             H   _2 -0.44; H   _1 -0.44; H   _2 -0.44; H      -0.44; 
 -----------------------------------------------------------------------------
   7  Screening settings (-IFTHRS, JTDIIS, DIFDEN, times)  -13    7    F  2.73D+01  2.73D+01
@  7  -434.235873250       6.20D-03  -3.25D-05    16  11   3   2
      Virial theorem: -V/T =      2.002033
@    MULPOP   C       1.82; C   _1  0.16; C   _2  0.16; C   _1  0.51; C   _2  0.51; C       0.26; N       0.51; O   _1 -0.86; O   _2 -0.86; H   _1 -0.44; 
@             H   _2 -0.44; H   _1 -0.44; H   _2 -0.44; H      -0.44; 
 -----------------------------------------------------------------------------
   8  Screening settings (-IFTHRS, JTDIIS, DIFDEN, times)  -13    8    T  2.72D+01  2.73D+01
@  8  -434.235878261       2.11D-03  -5.01D-06    16  11   3   2
      Virial theorem: -V/T =      2.002021
@    MULPOP   C       1.82; C   _1  0.16; C   _2  0.16; C   _1  0.51; C   _2  0.51; C       0.26; N       0.51; O   _1 -0.86; O   _2 -0.86; H   _1 -0.44; 
@             H   _2 -0.44; H   _1 -0.44; H   _2 -0.44; H      -0.44; 
 -----------------------------------------------------------------------------
   9  Screening settings (-IFTHRS, JTDIIS, DIFDEN, times)  -13    9    T  2.72D+01  2.72D+01
@  9  -434.235878813       6.62D-04  -5.52D-07    16  11   3   2
      Virial theorem: -V/T =      2.002018
@    MULPOP   C       1.82; C   _1  0.16; C   _2  0.16; C   _1  0.51; C   _2  0.51; C       0.26; N       0.51; O   _1 -0.86; O   _2 -0.86; H   _1 -0.44; 
@             H   _2 -0.44; H   _1 -0.44; H   _2 -0.44; H      -0.44; 
 -----------------------------------------------------------------------------
  10  Screening settings (-IFTHRS, JTDIIS, DIFDEN, times)  -13   10    T  2.72D+01  2.72D+01
@ 10  -434.235878868       2.21D-04  -5.52D-08    16  11   3   2
      Virial theorem: -V/T =      2.002020
@    MULPOP   C       1.82; C   _1  0.16; C   _2  0.16; C   _1  0.51; C   _2  0.51; C       0.26; N       0.51; O   _1 -0.86; O   _2 -0.86; H   _1 -0.44; 
@             H   _2 -0.44; H   _1 -0.44; H   _2 -0.44; H      -0.44; 
 -----------------------------------------------------------------------------
  11  Screening settings (-IFTHRS, JTDIIS, DIFDEN, times)  -13   11    T  2.80D+01  2.80D+01
@ 11  -434.235878877       8.32D-05  -8.74D-09    16  11   3   2
      Virial theorem: -V/T =      2.002019
@    MULPOP   C       1.82; C   _1  0.16; C   _2  0.16; C   _1  0.51; C   _2  0.51; C       0.26; N       0.51; O   _1 -0.86; O   _2 -0.86; H   _1 -0.44; 
@             H   _2 -0.44; H   _1 -0.44; H   _2 -0.44; H      -0.44; 
 -----------------------------------------------------------------------------
  12  Screening settings (-IFTHRS, JTDIIS, DIFDEN, times)  -13   12    T  2.76D+01  2.76D+01
@ 12  -434.235878878       3.45D-05  -1.48D-09    16  11   3   2
      Virial theorem: -V/T =      2.002019
@    MULPOP   C       1.82; C   _1  0.16; C   _2  0.16; C   _1  0.51; C   _2  0.51; C       0.26; N       0.51; O   _1 -0.86; O   _2 -0.86; H   _1 -0.44; 
@             H   _2 -0.44; H   _1 -0.44; H   _2 -0.44; H      -0.44; 
 -----------------------------------------------------------------------------
  13  Screening settings (-IFTHRS, JTDIIS, DIFDEN, times)  -13   13    T  2.70D+01  2.70D+01
@ 13  -434.235878878       1.91D-05  -2.26D-10    16  11   3   2
      Virial theorem: -V/T =      2.002019
@    MULPOP   C       1.82; C   _1  0.16; C   _2  0.16; C   _1  0.51; C   _2  0.51; C       0.26; N       0.51; O   _1 -0.86; O   _2 -0.86; H   _1 -0.44; 
@             H   _2 -0.44; H   _1 -0.44; H   _2 -0.44; H      -0.44; 
 -----------------------------------------------------------------------------
  14  Screening settings (-IFTHRS, JTDIIS, DIFDEN, times)  -13   14    T  2.69D+01  2.69D+01
@ 14  -434.235878879       6.79D-06  -1.11D-10    16  11   3   2
      Virial theorem: -V/T =      2.002019
@    MULPOP   C       1.82; C   _1  0.16; C   _2  0.16; C   _1  0.51; C   _2  0.51; C       0.26; N       0.51; O   _1 -0.86; O   _2 -0.86; H   _1 -0.44; 
@             H   _2 -0.44; H   _1 -0.44; H   _2 -0.44; H      -0.44; 
 -----------------------------------------------------------------------------
  15  Screening settings (-IFTHRS, JTDIIS, DIFDEN, times)  -13   15    T  2.70D+01  2.70D+01
@ 15  -434.235878879       2.78D-06  -1.97D-11    16  11   3   2
      Virial theorem: -V/T =      2.002019
@    MULPOP   C       1.82; C   _1  0.16; C   _2  0.16; C   _1  0.51; C   _2  0.51; C       0.26; N       0.51; O   _1 -0.86; O   _2 -0.86; H   _1 -0.44; 
@             H   _2 -0.44; H   _1 -0.44; H   _2 -0.44; H      -0.44; 
 -----------------------------------------------------------------------------
  16  Screening settings (-IFTHRS, JTDIIS, DIFDEN, times)  -13   16    T  2.70D+01  2.71D+01
@ 16  -434.235878879       1.24D-06  -1.02D-12    16  11   3   2
      Virial theorem: -V/T =      2.002019
@    MULPOP   C       1.82; C   _1  0.16; C   _2  0.16; C   _1  0.51; C   _2  0.51; C       0.26; N       0.51; O   _1 -0.86; O   _2 -0.86; H   _1 -0.44; 
@             H   _2 -0.44; H   _1 -0.44; H   _2 -0.44; H      -0.44; 
 -----------------------------------------------------------------------------
  17  Screening settings (-IFTHRS, JTDIIS, DIFDEN, times)  -13   17    T  2.71D+01  2.71D+01
@ 17  -434.235878879       5.11D-07   8.98D-12    16  11   3   2

@ *** DIIS converged in  17 iterations !
@     Converged SCF energy, gradient:   -434.235878878539    5.11D-07
    - total time used in SIRFCK :              0.00 seconds

 --- Writing SIRIFC interface file

 CPU and wall time for SCF :     461.969     462.172


 ----- Output from SIRIUS MP2 module -----

 Reference: H.J.Aa.Jensen, P.Jorgensen, H.Agren, and J.Olsen,
            J. Chem. Phys. 88, 3834 (1988); 89, 5354 (1988)

 Checking that the closed shell orbitals are canonical Hartree-Fock orbitals

    Number of electrons  :   64
    Closed shell orbitals:   16   11    3    2

 Generating Fock matrix

 Hartree-Fock electronic energy:        -846.371294145595
 Hartree-Fock total      energy:        -434.235878878528

 Hartree-Fock orbital energies, symmetry 1 ( A1 ),   16 occupied SCF orbitals

       -20.61417110   -15.86237593   -11.32039765   -11.28448789   -11.28185976
       -11.27434416    -1.61153917    -1.20255598    -1.09505088    -0.96341509
        -0.83330472    -0.78372016    -0.71048858    -0.65256891    -0.55708606
        -0.49641636     0.02659951     0.04407949     0.06219486     0.10461676
         0.13068121     0.13486327     0.15097555     0.15649041     0.17308627
         0.18061396     0.21474324     0.25848594     0.28798556     0.30096523
         0.31139945     0.33788010     0.35052653     0.35377489     0.37057752
         0.39572440     0.41252907     0.43304954     0.45898079     0.48504380
         0.51436659     0.56050091     0.58194351     0.58612658     0.63095206
         0.64975899     0.65911976     0.67684533     0.72619945     0.73295792
         0.74224629     0.83773124     0.88360922     0.92957689     0.95721760
         0.96439348     1.00706859     1.05644369     1.07988812     1.13685051
         1.27746893     1.36129016     1.37715011     1.44938420     1.49539752
         1.51272628     1.55193621     1.57104584     1.58860050     1.61318998
         1.68097442     1.71922358     1.74659545     1.77088345     1.87036378
         1.93984620     1.95567175     2.00819683     2.01781840     2.12777003
         2.16524209     2.23655739     2.30797107     2.37217121     2.42011244
         2.44526882     2.55215502     2.70321931     2.77323347     2.83546800
         2.88285277     2.96588688     3.03790968     3.15088457     3.27207190
         3.43086484     3.75909375     3.97779664     4.08738152     4.24035423
        19.80216512    20.33471292    20.45350212    20.62025463    23.35312307
        23.38512907    23.42606565    23.81652216    23.91403555    24.12263867
        27.07942062    31.26176545    35.80296116    39.72248038    39.83640276

 Hartree-Fock orbital energies, symmetry 2 ( B1 ),   11 occupied SCF orbitals

       -20.61422309   -11.28452640   -11.27445023    -1.40525316    -1.05608805
        -0.86811721    -0.73116970    -0.65864204    -0.62664556    -0.53266848
        -0.49556160     0.03599233     0.05989216     0.13018828     0.13329649
         0.15342205     0.17409164     0.18365653     0.21428719     0.26199246
         0.28928528     0.31373522     0.33367262     0.36187549     0.36955513
         0.39420137     0.42201700     0.43798619     0.47010802     0.56760153
         0.57788798     0.59072816     0.64895205     0.67033436     0.67933706
         0.69986787     0.75544096     0.76175078     0.82905203     0.84332427
         0.86497854     0.92993003     1.01513770     1.14112266     1.20571476
         1.24972163     1.31577769     1.40540247     1.41801391     1.48592627
         1.57081824     1.59062152     1.61155216     1.63722502     1.70212435
         1.75930380     1.77081241     1.78854622     1.88896196     1.92944578
         1.99799098     2.08394132     2.22999909     2.26182019     2.33999489
         2.34660058     2.38741820     2.53067613     2.57483557     2.76962509
         2.89839946     2.93544586     3.09429566     3.27912819     3.32978112
         3.41249618     3.75311731     3.85580868     4.21665050    20.30117581
        20.48109871    22.90558387    23.34094579    23.38926434    23.93817256
        24.12074418    24.30825335    31.44434377    35.54894131    39.63722748
        40.03400853

 Hartree-Fock orbital energies, symmetry 3 ( B2 ),    3 occupied SCF orbitals

        -0.72001900    -0.53770566    -0.37843726     0.03458080     0.10677270
         0.12551405     0.13902261     0.18397534     0.19258157     0.24522809
         0.31949811     0.34209337     0.37366666     0.44421940     0.53321574
         0.58745116     0.64292081     0.71286211     0.78993633     0.83969682
         0.87158699     0.92146827     0.92631032     0.98545767     1.14496090
         1.28691472     1.29187874     1.47082324     1.47424869     1.61581928
         1.67347141     1.70782967     1.84383688     1.89844671     1.97598987
         2.08198394     2.17780509     2.29605085     2.53772614     2.67695238
         3.66933031     3.78184748    22.54328392    22.69079477    22.82759548
        23.02617935    30.55420632    39.42094193

 Hartree-Fock orbital energies, symmetry 4 ( A2 ),    2 occupied SCF orbitals

        -0.45668199    -0.36994494     0.08557737     0.13129987     0.18584652
         0.29771046     0.41313442     0.49048500     0.54759717     0.66056978
         0.73593754     0.89541577     0.90129794     0.94413588     1.03711742
         1.08949890     1.21293458     1.24315543     1.33469620     1.48755685
         1.67165853     1.68873666     1.86045484     2.00087239     2.11673830
         2.21192537     2.35443882     2.46969306     2.60547134     3.66517699
         4.00212840    22.69204549    22.85865589    39.49631745

    E(LUMO) :     0.02659951   (in symmetry 1)
  - E(HOMO) :    -0.36994494   (in symmetry 4)
  --------------------------
    gap     :     0.39654445

---> (Re)generating AOTWOINT


     ************************************************************************
     ************************** Output from HERINT **************************
     ************************************************************************


 Threshold for neglecting two-electron integrals:  1.00D-12
 HERMIT - Number of two-electron integrals written:   203489779 ( 23.5% )
 HERMIT - Megabytes written:                           3106.305

  Time used in TWOINT     is      37.81 seconds

 2-el. integral transformation level 5: Total CPU and WALL times (sec)     395.453     399.271

 MP2 move   0.994252 electrons to unoccupied HF orbitals


@   Hartree-Fock total energy   :          -434.2358788785
@   + MP2 contribution          :            -1.7260834344
@   = MP2 second order energy   :          -435.9619623129

 Natural orbital occupation numbers, symmetry 1 (irrep A1 )
 Sum =    32.00759245; RHF =    32.00000000; Difference =     0.00759245

         1.99929005     1.99907562     1.99876147     1.99875654     1.99875179
         1.99874781     1.98691347     1.98412472     1.97944295     1.97231707
         1.96893153     1.96827032     1.96537240     1.96215915     1.95511148
         1.94583895     0.04264919     0.03587687     0.02549561     0.02382135
         0.01919835     0.01857280     0.01733459     0.01646601     0.01378678
         0.01267631     0.01165949     0.00982803     0.00853730     0.00786410
         0.00742070     0.00668784     0.00561639     0.00453967     0.00307149
         0.00294636     0.00270177     0.00261726     0.00221577     0.00202176
         0.00184771     0.00167078     0.00161242     0.00131380     0.00121167
         0.00116249     0.00105960     0.00096309     0.00071593     0.00065228
         0.00061215     0.00053529     0.00049915     0.00046308     0.00043902
         0.00041642     0.00040416     0.00038624     0.00037639     0.00035069
         0.00034204     0.00032369     0.00031264     0.00029117     0.00026770
         0.00026068     0.00022463     0.00021676     0.00020400     0.00019575
         0.00018665     0.00018579     0.00017628     0.00017097     0.00016714
         0.00016168     0.00015559     0.00014976     0.00014048     0.00013324
         0.00012600     0.00012418     0.00012190     0.00011088     0.00010499
         0.00009379     0.00007786     0.00007142     0.00005818     0.00005481
         0.00005180     0.00003960     0.00003451     0.00002814     0.00002064
         0.00001754     0.00001447     0.00001258     0.00001143     0.00000935
         0.00000874     0.00000846     0.00000701     0.00000313     0.00000299
         0.00000201     0.00000105     0.00000056     0.00000036     0.00000018
         0.00000016     0.00000000    -0.00000010    -0.00000051    -0.00005577

 Natural orbital occupation numbers, symmetry 2 (irrep B1 )
 Sum =    21.95381566; RHF =    22.00000000; Difference =    -0.04618434

         1.99928994     1.99875721     1.99875088     1.98413947     1.98002660
         1.97273754     1.96258456     1.96054625     1.95481423     1.95428922
         1.94646816     0.03812132     0.02539835     0.02378137     0.01908997
         0.01660080     0.01594382     0.01521400     0.01125531     0.01052194
         0.00911282     0.00767940     0.00580779     0.00539408     0.00516025
         0.00398147     0.00312603     0.00273144     0.00239905     0.00212914
         0.00172252     0.00162337     0.00152097     0.00131891     0.00118629
         0.00102600     0.00097340     0.00069765     0.00064103     0.00056828
         0.00049083     0.00044037     0.00042298     0.00037287     0.00035375
         0.00033746     0.00030487     0.00029257     0.00026990     0.00025894
         0.00023872     0.00021141     0.00019814     0.00018774     0.00018264
         0.00017772     0.00017020     0.00016933     0.00016020     0.00015388
         0.00014374     0.00013380     0.00012922     0.00012576     0.00011881
         0.00011287     0.00009462     0.00008943     0.00006870     0.00005433
         0.00004576     0.00003694     0.00003057     0.00002896     0.00002323
         0.00001516     0.00001424     0.00001139     0.00001061     0.00000853
         0.00000470     0.00000358     0.00000179     0.00000124     0.00000059
         0.00000028     0.00000014    -0.00000003    -0.00000020    -0.00000067
        -0.00001775

 Natural orbital occupation numbers, symmetry 3 (irrep B2 )
 Sum =     6.07755902; RHF =     6.00000000; Difference =     0.07755902

         1.95053931     1.94432957     1.90911673     0.10149697     0.06752211
         0.02962133     0.01050098     0.01030915     0.00872329     0.00793454
         0.00617060     0.00527829     0.00447546     0.00388759     0.00342592
         0.00306668     0.00153528     0.00144250     0.00099275     0.00088768
         0.00086614     0.00066159     0.00060065     0.00049500     0.00047223
         0.00041876     0.00033448     0.00029013     0.00024920     0.00022967
         0.00019740     0.00019584     0.00018985     0.00017686     0.00015337
         0.00013026     0.00012126     0.00011109     0.00010092     0.00008326
         0.00008042     0.00006275     0.00003623     0.00002029     0.00001047
         0.00000779     0.00000513     0.00000124

 Natural orbital occupation numbers, symmetry 4 (irrep A2 )
 Sum =     3.96103287; RHF =     4.00000000; Difference =    -0.03896713

         1.91632986     1.90850449     0.06656439     0.01453167     0.01040286
         0.00930725     0.00791703     0.00570712     0.00512238     0.00406010
         0.00357680     0.00152737     0.00119959     0.00093581     0.00077864
         0.00072822     0.00067357     0.00056391     0.00040707     0.00037046
         0.00033916     0.00029678     0.00021641     0.00019696     0.00016454
         0.00013308     0.00011678     0.00010380     0.00009345     0.00006954
         0.00005016     0.00002065     0.00001756     0.00000539

 Time used for MP2 natural orbitals :     426.750 CPU seconds,     430.723 wall seconds.

 CPU and wall time for MP2 :     426.750     430.725


                       .-----------------------------------.
                       | --- Final results from SIRIUS --- |
                       `-----------------------------------'


@    Spin multiplicity:           1
@    Spatial symmetry:            1 ( irrep  A1  in C2v )
@    Total charge of molecule:    0

@    Final HF energy:            -434.235878878539                 
@    Nuclear repulsion:           412.135415267067
@    Electronic energy:          -846.371294145606

@    Final gradient norm:           0.000000510901

 
     Date and time (Linux)  : Wed Jun 26 11:19:07 2019
     Host name              : Lab2-333-NPs                            

File label for MO orbitals:  26Jun19   MP2SAVE 

 (Only coefficients > 0.0100 are printed.)

 Molecular orbitals for symmetry species 1  (A1 )
 ------------------------------------------------

    Orbital         7        8        9       10       11       12       13
   1 C   :1s    -0.0116  -0.0143   0.0197  -0.0082  -0.0039   0.0004  -0.0007
   2 C   :1s     0.1652   0.2750  -0.4016   0.2671   0.2544  -0.1535  -0.0313
   3 C   :1s     0.1214  -0.1812  -0.0610   0.1356   0.1167  -0.1712   0.2536
   5 C   :1s     0.1406  -0.4213   0.1595  -0.0495   0.2413   1.1038   0.6779
   6 C   :2pz    0.0574  -0.0836   0.0302   0.0893  -0.1321  -0.0941   0.1330
   7 C   :2pz   -0.1945   0.0610   0.0695  -0.0688  -0.0086   0.0835  -0.1488
   9 C   :2pz    0.0581   0.0953   0.0984   0.0371   0.0069  -0.1006  -0.1326
  10 C   :3d0    0.0103  -0.0005  -0.0008   0.0183  -0.0048  -0.0247  -0.0067
  11 C   :3d2+   0.0029   0.0102  -0.0141  -0.0007   0.0026   0.0128   0.0037
  12 C   :3d0   -0.1198  -0.0151   0.0333  -0.0829   0.0210   0.0942  -0.1028
  13 C   :3d2+   0.0590   0.0233  -0.0276   0.0442  -0.0114  -0.0270   0.0503
  14 C   :1s    -0.0050  -0.0150   0.0091   0.0055  -0.0024  -0.0022  -0.0002
  15 C   :1s     0.0823   0.3348  -0.2707  -0.1616   0.0653   0.1953   0.0870
  16 C   :1s    -0.1002  -0.1568   0.0027  -0.0499  -0.0029  -0.0147  -0.0517
  18 C   :1s    -0.0584   0.3038   0.1791   0.0357  -0.2222  -1.0531  -0.6368
  19 C   :2px    0.0100   0.0335  -0.0364   0.1474   0.1937  -0.1538  -0.2040
  20 C   :2pz    0.0164  -0.0335  -0.1198   0.0774  -0.0577   0.0996   0.1228
  21 C   :2px   -0.0547   0.0220   0.0334  -0.1053  -0.1291   0.0804   0.0525
  22 C   :2pz   -0.1524   0.0687   0.2007  -0.0712  -0.0282  -0.0027  -0.2737
  25 C   :2px   -0.0178   0.0396  -0.0392  -0.0282  -0.0481  -0.1634  -0.0985
  26 C   :2pz   -0.0284  -0.0406  -0.1005  -0.0146   0.0272   0.1132   0.0796
  28 C   :3d1+   0.0033   0.0013  -0.0056   0.0050   0.0024  -0.0176   0.0004
  30 C   :3d0    0.0299  -0.0307  -0.0345  -0.0204   0.0307   0.0135   0.0481
  31 C   :3d1+  -0.0148   0.0083   0.0002  -0.0641  -0.0091   0.1017  -0.0012
  32 C   :3d2+  -0.0089   0.0149   0.0269   0.0069  -0.0148  -0.0173  -0.0265
  33 C   :1s    -0.0023  -0.0180  -0.0081   0.0032   0.0016   0.0020   0.0021
  34 C   :1s     0.0396   0.3617   0.2073  -0.1944  -0.0728  -0.2242  -0.0850
  35 C   :1s    -0.1026  -0.0373  -0.0041  -0.0050  -0.0451   0.0360  -0.1656
  37 C   :1s     0.0564  -0.2063  -0.1163   0.2269   0.3739   1.1579   0.5679
  38 C   :2px    0.0048   0.0362   0.0401   0.1324   0.1661   0.1518  -0.1949
  39 C   :2pz    0.0093   0.0127  -0.1149  -0.0782   0.1151   0.0798  -0.0591
  40 C   :2px    0.0153  -0.0075  -0.0714  -0.1292  -0.0980  -0.0917   0.0730
  41 C   :2pz   -0.0657   0.0655   0.2115   0.0976  -0.0616   0.0124  -0.0932
  44 C   :2px    0.0195  -0.0156   0.0587   0.0792   0.0676   0.1917   0.0942
  45 C   :2pz    0.0002  -0.0354  -0.0776  -0.0290   0.0231   0.1120   0.0685
  47 C   :3d1+   0.0006  -0.0041  -0.0079  -0.0059  -0.0008  -0.0203  -0.0062
  49 C   :3d0   -0.0186   0.0291   0.0436  -0.0054  -0.0216  -0.0233  -0.0368
  50 C   :3d1+   0.0056  -0.0168   0.0118   0.0333   0.0425   0.1009  -0.0041
  51 C   :3d2+   0.0099  -0.0117  -0.0302   0.0072   0.0136   0.0202   0.0211
  52 C   :1s    -0.0016  -0.0174  -0.0183  -0.0070  -0.0005  -0.0017   0.0018
  53 C   :1s     0.0314   0.3739   0.4527   0.3496   0.0715   0.2449  -0.0136
  54 C   :1s    -0.0522  -0.0736   0.0891   0.0376   0.0470   0.0824  -0.1293
  56 C   :1s    -0.0886   0.1359  -0.2237  -0.4802  -0.4163  -1.1550  -0.5394
  57 C   :2pz    0.0097   0.0401  -0.0635  -0.2134   0.0460  -0.1935  -0.3384
  58 C   :2pz   -0.0191   0.0167   0.1495   0.1500  -0.0054   0.1194   0.1129
  60 C   :2pz   -0.0149   0.0460   0.0139  -0.0476  -0.0872  -0.2185  -0.1019
  61 C   :3d0   -0.0003   0.0009   0.0007   0.0106   0.0092   0.0192   0.0040
  62 C   :3d2+   0.0014   0.0105   0.0112  -0.0019  -0.0045  -0.0120  -0.0048
  63 C   :3d0   -0.0035  -0.0054  -0.0479  -0.0815  -0.0245  -0.0961  -0.0468
  64 C   :3d2+   0.0047   0.0015   0.0294   0.0433   0.0151   0.0474   0.0290
  65 N   :1s    -0.0154   0.0018   0.0008   0.0010   0.0032  -0.0039   0.0040
  66 N   :1s     0.4639  -0.0291  -0.1000   0.3466  -0.0207  -0.4470   0.3224
  67 N   :1s    -0.1460   0.0302  -0.0586   0.0523  -0.0528  -0.0331   0.0517
  69 N   :1s    -0.1760   0.0901  -0.1651   0.0370  -0.0840  -0.2497   0.0152
  70 N   :2pz    0.0399  -0.0762   0.1632  -0.2382   0.2157   0.0601   0.1524
  71 N   :2pz   -0.1697   0.0272  -0.0383   0.0303  -0.0796   0.0417  -0.0774
  73 N   :2pz   -0.0434  -0.0678   0.0092  -0.0085  -0.0123   0.0329   0.0432
  74 N   :3d0    0.0017   0.0020  -0.0025  -0.0032   0.0321  -0.0088   0.0230
  75 N   :3d2+   0.0181  -0.0029  -0.0005   0.0068  -0.0215   0.0006  -0.0099
  76 N   :3d0    0.0146   0.0131  -0.0102  -0.0004   0.0115   0.0047  -0.0112
  77 N   :3d2+  -0.0424  -0.0064   0.0007   0.0060  -0.0206  -0.0027  -0.0048
  78 O   :1s    -0.0114   0.0013  -0.0005  -0.0012  -0.0011   0.0030  -0.0029
  79 O   :1s     0.5343  -0.1383   0.1377  -0.1344  -0.0694   0.1746  -0.1909
  80 O   :1s     0.0616   0.0043   0.0110  -0.0293   0.0188   0.0362  -0.0411
  82 O   :1s     0.1114  -0.0167   0.0477  -0.0138   0.0165   0.0501  -0.0553
  83 O   :2px    0.0381  -0.0154   0.0223  -0.0028   0.2129  -0.1626   0.2730
  84 O   :2pz    0.0231  -0.0387   0.0956  -0.1892   0.3955   0.0172   0.1779
  85 O   :2px    0.0277  -0.0035   0.0098  -0.0175   0.0081   0.0212  -0.0195
  86 O   :2pz   -0.0123  -0.0040  -0.0049   0.0150  -0.0024  -0.0217   0.0241
  89 O   :2px    0.0149   0.0035   0.0070  -0.0031   0.0168   0.0056   0.0032
  90 O   :2pz    0.0054   0.0117  -0.0011  -0.0127   0.0311  -0.0049   0.0162
  94 O   :3d0   -0.0021   0.0025  -0.0038   0.0035  -0.0131   0.0048  -0.0089
  97 H   :1s     0.0383   0.1175  -0.1578  -0.1508  -0.1527   0.2729   0.2313
  98 H   :1s     0.0140  -0.0891  -0.0143  -0.0486   0.0437   0.1226   0.0786
  99 H   :1s     0.0021   0.0163   0.0081  -0.0056  -0.0184  -0.0448  -0.0256
 102 H   :2px    0.0070  -0.0057  -0.0091  -0.0217  -0.0076   0.0427   0.0330
 103 H   :2pz   -0.0089   0.0165   0.0144   0.0066  -0.0114  -0.0197  -0.0317
 104 H   :1s     0.0086   0.1388   0.1132  -0.1653  -0.2167  -0.2880   0.1160
 105 H   :1s    -0.0302  -0.0073  -0.0076  -0.0262  -0.0589  -0.1682  -0.1122
 106 H   :1s     0.0002  -0.0082  -0.0023   0.0130   0.0164   0.0599   0.0385
 109 H   :2px   -0.0031   0.0056  -0.0025  -0.0200  -0.0271  -0.0578  -0.0120
 110 H   :2pz   -0.0041   0.0062   0.0139  -0.0041  -0.0135  -0.0256  -0.0136
 111 H   :1s     0.0058   0.1384   0.2687   0.3748   0.0157   0.3164   0.2984
 112 H   :1s     0.0043  -0.0642   0.0474   0.0977   0.0800   0.1696   0.0487
 113 H   :1s    -0.0054   0.0113  -0.0079  -0.0170  -0.0321  -0.0550  -0.0185
 114 H   :2pz    0.0009   0.0096   0.0147   0.0159  -0.0003   0.0110   0.0100
 115 H   :2pz    0.0025  -0.0066   0.0317   0.0517   0.0214   0.0632   0.0359

    Orbital        14       15       16       17       18       19       20
   1 C   :1s    -0.0035  -0.0027  -0.0034   0.0014   0.0509   0.0671  -0.0563
   2 C   :1s     0.3641   0.2230   0.0203   0.0032   0.8074   0.7414  -0.5612
   3 C   :1s    -0.0080   0.1558  -0.0653  -0.1909  -0.1112  -0.8529   0.6966
   4 C   :1s    -0.0003  -0.0005  -0.0016   0.0004   0.0270   0.0332  -0.0301
   5 C   :1s    -0.3859  -0.2355  -0.1062  -0.1710  -0.4181   0.5063   0.3267
   6 C   :2pz   -0.1758   0.0896   0.5070   0.0687   0.6500  -0.3207   0.5316
   7 C   :2pz    0.0332  -0.0670  -0.1418   0.0598  -0.7410   0.3776  -0.6184
   9 C   :2pz    0.0469  -0.1408  -0.0542   0.2515  -0.1688  -0.1425  -0.1098
  10 C   :3d0   -0.0086  -0.0178   0.0362   0.0051  -0.0638   0.0587  -0.0065
  11 C   :3d2+   0.0041   0.0104  -0.0126   0.0055  -0.0144  -0.1076   0.0265
  12 C   :3d0    0.0543  -0.0536  -0.0133  -0.0049  -0.0660  -0.1937   0.0377
  13 C   :3d2+  -0.0338   0.0303   0.0179   0.0016  -0.0309   0.0890   0.0103
  14 C   :1s    -0.0022   0.0012   0.0036  -0.0048  -0.0131   0.0055   0.0367
  15 C   :1s    -0.0168  -0.1395  -0.0253  -0.0454  -0.1975   0.0326   0.4246
  16 C   :1s     0.0256  -0.1055  -0.0603   0.1473   0.1023  -0.4290  -0.5982
  17 C   :1s    -0.0003  -0.0002   0.0010  -0.0020  -0.0064   0.0013   0.0199
  18 C   :1s     0.4674   0.0470  -0.0669   0.4673  -0.0508  -0.5987  -0.1692
  19 C   :2px    0.2225  -0.0382  -0.1488   0.0279  -0.1658  -0.4214   0.2512
  20 C   :2pz    0.0501   0.3831  -0.1834  -0.0115  -0.0114  -0.6464  -0.0472
  21 C   :2px   -0.0676  -0.0176   0.0133   0.0340  -0.1348   0.3910  -0.2697
  22 C   :2pz    0.0611  -0.1635   0.1020   0.0662  -0.1040   0.3625   0.1157
  25 C   :2px    0.0617   0.0560   0.0027   0.0324   0.0588  -0.0607  -0.0180
  26 C   :2pz   -0.0749   0.0749   0.0524  -0.1718   0.0741   0.1241   0.0121
  27 C   :3d0   -0.0083  -0.0110   0.0151   0.0119   0.0434  -0.0812   0.0325
  28 C   :3d1+   0.0202  -0.0008   0.0035  -0.0010   0.0476   0.0002  -0.0487
  29 C   :3d2+   0.0063   0.0056  -0.0113  -0.0035  -0.0360   0.0311  -0.0462
  30 C   :3d0    0.0128   0.0262  -0.0405  -0.0428   0.1193  -0.1896   0.0814
  31 C   :3d1+  -0.0352  -0.0157   0.0206  -0.0167   0.0452   0.0756   0.0240
  32 C   :3d2+  -0.0062  -0.0150   0.0111   0.0262  -0.0521   0.1211  -0.0562
  33 C   :1s     0.0024   0.0007  -0.0006   0.0016   0.0111  -0.0196   0.0476
  34 C   :1s    -0.0498  -0.0318   0.0733   0.0236   0.1308  -0.2486   0.5303
  35 C   :1s    -0.0267  -0.0461   0.0893   0.0430  -0.2507   0.4240  -0.4611
  36 C   :1s     0.0001  -0.0001   0.0000   0.0010   0.0058  -0.0097   0.0261
  37 C   :1s    -0.4697  -0.0910   0.0843  -0.4676   0.1902   0.6084  -0.0039
  38 C   :2px   -0.2769   0.1120   0.0041   0.0009  -0.0263   0.0910   0.5230
  39 C   :2pz   -0.0737  -0.3889   0.1624   0.0348   0.2244  -0.5390  -0.3919
  40 C   :2px    0.0806  -0.0035  -0.0008  -0.0048   0.0435  -0.1900  -0.5300
  41 C   :2pz    0.0758   0.0696   0.0323  -0.0082  -0.2400   0.4970   0.1529
  44 C   :2px   -0.0473  -0.0533  -0.0078  -0.0276  -0.0220   0.0676  -0.0256
  45 C   :2pz   -0.0699   0.0010   0.0194  -0.0761   0.0359   0.0853  -0.0224
  46 C   :3d0    0.0062  -0.0243   0.0050  -0.0003  -0.0040   0.0491   0.0687
  47 C   :3d1+   0.0152  -0.0017  -0.0056   0.0035  -0.0228  -0.0594   0.0305
  48 C   :3d2+  -0.0055   0.0131  -0.0029  -0.0006  -0.0028  -0.0067  -0.0602
  49 C   :3d0    0.0148   0.0372   0.0063  -0.0093  -0.0834   0.1306   0.1727
  50 C   :3d1+  -0.0491   0.0021   0.0114  -0.0273   0.0358   0.1116   0.0844
  51 C   :3d2+  -0.0111  -0.0154  -0.0040  -0.0017   0.0271  -0.0696  -0.1351
  52 C   :1s     0.0031  -0.0019  -0.0004  -0.0010   0.0105   0.0077  -0.0871
  53 C   :1s    -0.1825   0.2069  -0.0139  -0.0131   0.1399   0.0818  -1.0052
  54 C   :1s    -0.0220   0.0583   0.0357  -0.0493  -0.1781   0.5088   1.2675
  55 C   :1s    -0.0000   0.0004  -0.0003  -0.0006   0.0052   0.0068  -0.0461
  56 C   :1s     0.2796   0.2253   0.0029   0.2470  -0.1497  -0.4570   0.0236
  57 C   :2pz   -0.3620   0.3450  -0.0236  -0.0125   0.0805  -0.0213  -0.6258
  58 C   :2pz    0.1185  -0.1026   0.0245   0.0166  -0.0402   0.0264   0.7618
  60 C   :2pz    0.0880   0.0069   0.0062   0.0826  -0.0619  -0.1372   0.0184
  61 C   :3d0   -0.0002  -0.0269   0.0081   0.0029   0.0050  -0.0788  -0.0708
  62 C   :3d2+  -0.0010   0.0159  -0.0042  -0.0016  -0.0084   0.0631   0.0876
  63 C   :3d0   -0.0228   0.0413  -0.0051   0.0066  -0.0293   0.0118   0.1285
  64 C   :3d2+   0.0131  -0.0337   0.0042  -0.0006   0.0355  -0.0292  -0.0359
  65 N   :1s    -0.0079  -0.0063  -0.0026  -0.0809  -0.0832  -0.0103  -0.0164
  66 N   :1s    -0.4315  -0.2012  -0.0279  -1.0236  -0.8903  -0.1320  -0.1651
  67 N   :1s     0.0224   0.0844   0.0984   0.1639   0.6733   0.0763   0.1106
  68 N   :1s    -0.0025  -0.0019  -0.0011  -0.0359  -0.0383  -0.0054  -0.0080
  69 N   :1s    -0.0007   0.1642   0.0384  -0.3862   0.3968  -0.1414   0.0308
  70 N   :2pz   -0.0701  -0.0791  -0.6286  -0.6401   0.6806  -0.1765   0.1225
  71 N   :2pz    0.0299   0.0234   0.0838   0.2046  -0.5922  -0.0024  -0.1281
  73 N   :2pz    0.0104   0.0272  -0.0629  -0.0586  -0.0544   0.0185   0.0202
  74 N   :3d0    0.0052   0.0200   0.0322  -0.0349   0.0626   0.0249   0.0336
  75 N   :3d2+  -0.0070  -0.0132  -0.0291   0.0562  -0.0051  -0.0145  -0.0075
  76 N   :3d0    0.0179   0.0115   0.0304   0.0360   0.0114  -0.0730   0.0046
  77 N   :3d2+  -0.0059  -0.0031  -0.0166  -0.0108  -0.0009   0.0114  -0.0172
  79 O   :1s     0.1438   0.0036  -0.0300   0.2434  -0.0415   0.0568  -0.0515
  80 O   :1s     0.0521   0.0130   0.0523   0.0987   0.1018   0.0035   0.0778
  82 O   :1s     0.0486  -0.0241   0.0647   0.2039  -0.0177   0.0547   0.0080
  83 O   :2px   -0.1707  -0.0348  -0.1775   0.8626  -0.0139   0.0027  -0.0116
  84 O   :2pz    0.1176   0.2009   0.3366  -0.0155  -0.4961  -0.2260  -0.0842
  85 O   :2px    0.0280   0.0115   0.0378  -0.3128   0.0956   0.0939   0.0366
  86 O   :2pz   -0.0224  -0.0022  -0.0009  -0.1726   0.4048   0.2235   0.0728
  89 O   :2px   -0.0009  -0.0018   0.0234   0.0153   0.0016   0.0258  -0.0029
  90 O   :2pz   -0.0096   0.0087   0.0379  -0.0309   0.0375   0.0177   0.0016
  91 O   :3d0    0.0020  -0.0002   0.0049   0.0251  -0.0139   0.0007  -0.0048
  92 O   :3d1+   0.0068   0.0055   0.0049  -0.0013   0.0154   0.0046   0.0079
  93 O   :3d2+  -0.0063  -0.0024  -0.0083  -0.0221   0.0157  -0.0027   0.0057
  94 O   :3d0    0.0017  -0.0008   0.0020   0.0369  -0.0376  -0.0278  -0.0092
  95 O   :3d1+   0.0017   0.0037   0.0036  -0.0243   0.0421   0.0215   0.0112
  96 O   :3d2+  -0.0042  -0.0015  -0.0037  -0.0242   0.0196   0.0201   0.0096
  97 H   :1s    -0.1774   0.1561  -0.0157  -0.0084  -0.1145   0.0614  -0.0234
  98 H   :1s    -0.0614   0.0095  -0.0530  -0.1074   0.0973   0.1445   0.0495
  99 H   :1s     0.0254   0.0145   0.0025   0.0279   0.0257  -0.0196   0.0094
 100 H   :2px   -0.0028   0.0050  -0.0014   0.0006  -0.0025  -0.0106  -0.0002
 101 H   :2pz    0.0054   0.0016  -0.0051   0.0053  -0.0075  -0.0229   0.0036
 102 H   :2px   -0.0340   0.0078  -0.0108  -0.0216  -0.0034   0.0778  -0.0143
 103 H   :2pz    0.0026  -0.0265   0.0203   0.0257  -0.0252   0.0100  -0.0338
 104 H   :1s     0.2404   0.0991  -0.0700   0.0038  -0.0536  -0.1053  -0.1142
 105 H   :1s     0.0697   0.0606  -0.0113   0.0444  -0.1113  -0.0581  -0.0670
 106 H   :1s    -0.0184  -0.0009  -0.0048  -0.0316  -0.0026   0.0348  -0.0219
 108 H   :2pz    0.0048  -0.0051   0.0018  -0.0000   0.0040  -0.0101  -0.0175
 109 H   :2px    0.0306   0.0145  -0.0075   0.0104  -0.0271  -0.0319  -0.0694
 110 H   :2pz    0.0141   0.0315  -0.0040  -0.0045  -0.0273   0.0139   0.0336
 111 H   :1s     0.2492  -0.2966   0.0414   0.0075   0.0071  -0.2047  -0.0615
 112 H   :1s    -0.0198  -0.1356   0.0405   0.0113   0.1291   0.0021   0.1064
 113 H   :1s     0.0289  -0.0168   0.0172   0.0226  -0.0102  -0.0408   0.0112
 115 H   :2pz    0.0115  -0.0600   0.0136   0.0078   0.0447  -0.0304   0.0485

    Orbital        21       22       23       24       25       26
   1 C   :1s    -0.0807   0.0077  -0.0391  -0.0011  -0.0257   0.0509
   2 C   :1s    -0.9007   0.0372  -0.2684  -0.0155  -0.2258   0.3728
   3 C   :1s     2.1263  -0.7514  -1.2041   0.9751  -0.2978  -2.3053
   4 C   :1s    -0.0438   0.0042  -0.0200  -0.0002  -0.0118   0.0293
   5 C   :1s     0.5355  -1.1390  -0.4816   0.5173  -1.1643   1.6259
   6 C   :2pz    0.2827  -0.0122   0.6005  -0.0340   0.2868  -0.5020
   7 C   :2pz   -0.6088  -0.0652  -0.4925  -0.4388  -0.8456  -0.1899
   9 C   :2pz   -0.2796   0.1164   0.3276  -0.0041   0.2358   0.0633
  10 C   :3d0    0.0088  -0.0981   0.0412   0.0591   0.0407  -0.1040
  11 C   :3d2+   0.0552   0.0465  -0.0513   0.0187   0.0050   0.1474
  12 C   :3d0    0.0015   0.1858   0.3195   0.1178   0.2330   1.0064
  13 C   :3d2+   0.0365  -0.1628  -0.1308  -0.0573  -0.1920  -0.5720
  14 C   :1s     0.1061   0.0391   0.0204  -0.0525  -0.0319   0.0258
  15 C   :1s     1.0745   0.4109   0.2441  -0.5122  -0.2229   0.1589
  16 C   :1s    -0.9178   0.2184  -0.2726   0.8971   0.6143  -0.1605
  17 C   :1s     0.0563   0.0232   0.0104  -0.0289  -0.0178   0.0163
  18 C   :1s    -0.5781   1.1212   0.6808  -0.3963   1.4928  -0.4061
  19 C   :2px    0.2199   0.0728   0.2173   0.4149   0.5959   0.1850
  20 C   :2pz    0.1287  -0.1138  -0.5401  -0.1288  -0.3675  -0.1694
  21 C   :2px   -0.6744  -0.2021  -0.0609  -0.5215  -0.8655  -0.3967
  22 C   :2pz   -0.3959   0.5005   1.3852  -0.4564   0.3760   1.8320
  25 C   :2px   -0.0559   0.1846   0.0030  -0.0225   0.2657  -0.1029
  26 C   :2pz    0.1538  -0.1710  -0.1940  -0.0038  -0.2476  -0.1383
  27 C   :3d0   -0.0141   0.0525   0.0326   0.0142   0.0053   0.0927
  28 C   :3d1+   0.0359   0.1131  -0.0484  -0.0435   0.0273   0.0946
  29 C   :3d2+  -0.0202  -0.0491  -0.0263   0.0267  -0.0059   0.0443
  30 C   :3d0    0.1774  -0.0403  -0.1760   0.2966   0.2371   0.0559
[...]
  73 O   :3d0    0.0083   0.0092   0.0063  -0.0302  -0.0115  -0.0246  -0.0702
  74 O   :3d1+  -0.0019  -0.0026   0.0051   0.0212   0.0003   0.0134   0.0067
  75 O   :3d2+  -0.0037  -0.0044  -0.0090   0.0126   0.0084  -0.0017   0.0276
  76 H   :1s    -0.0814   0.1985  -0.0601   0.0335  -0.1699   0.0293  -0.3191
  77 H   :1s    -0.0482   0.0908  -0.0255   0.0968  -0.0392   0.0405   0.3920
  78 H   :1s    -0.0080   0.0051  -0.0073   0.0034  -0.0218  -0.0298  -0.0944
  80 H   :2pz   -0.0018  -0.0044   0.0024  -0.0044  -0.0135  -0.0018  -0.0265
  81 H   :2px   -0.0114   0.0414  -0.0092   0.0157  -0.0066   0.0172   0.1217
  82 H   :2pz    0.0230  -0.0165   0.0125  -0.0359   0.0596   0.0104  -0.0633
  83 H   :1s     0.0204  -0.2294   0.0232   0.0276  -0.1306   0.1245  -0.1114
  84 H   :1s     0.0097  -0.1232   0.0194   0.0044   0.0213   0.0135  -0.0577
  85 H   :1s     0.0074  -0.0180   0.0070   0.0064   0.0104   0.0332   0.0629
  86 H   :2px   -0.0027  -0.0001  -0.0001   0.0011   0.0004   0.0103  -0.0023
  88 H   :2px    0.0159  -0.0465   0.0081   0.0090  -0.0029   0.0017  -0.0405
  89 H   :2pz   -0.0157  -0.0238   0.0000   0.0024  -0.0022   0.0466  -0.0084
  90 H   :2px    0.0063  -0.0070   0.0008   0.0007  -0.0246  -0.0006   0.0126
  91 H   :2px   -0.0136   0.0253  -0.0036  -0.0139   0.0652  -0.0000  -0.0722

    Orbital        16       17       18       19       20       21
   1 C   :2px   -0.1018   0.9795  -0.3735   0.1415  -0.2810   0.0173
   2 C   :2px    0.9902  -3.6998   2.9299  -2.4715   1.6074   1.5168
   4 C   :2px    0.1294   0.6303  -0.2003   0.4525  -0.5272  -0.8202
   5 C   :3d1+  -0.0123  -0.0053   0.1528  -0.0624  -0.0405   0.0368
   6 C   :3d1+  -0.3626   0.9434  -1.1567   1.7883  -0.5428  -0.2647
   7 C   :1s     0.0040   0.0174  -0.0827   0.0057   0.0265   0.1117
   8 C   :1s     0.0346   0.1963  -0.7933  -0.0012   0.1256   0.8505
   9 C   :1s     0.6002  -0.4414   2.6670  -1.8350   0.5638  -0.1539
  10 C   :1s     0.0025   0.0097  -0.0445   0.0011   0.0147   0.0635
  11 C   :1s    -0.3110   0.1861  -0.2799   0.2931  -0.5488  -0.6905
  12 C   :2px   -0.0897   0.2659   0.5920   0.0820  -0.2519  -0.0941
  13 C   :2pz   -0.0491   0.7331   0.0268  -0.0602  -0.0584  -0.0746
  14 C   :2px    0.8619  -1.5366   0.9018  -1.9105   1.1395   0.8686
  15 C   :2pz    0.4273  -2.7145   0.6073  -0.9271   0.9350   0.6729
  18 C   :2px   -0.0312   0.2738  -0.0077   0.3252  -0.1467  -0.1557
  19 C   :2pz    0.1128   0.4416  -0.0549   0.2240  -0.2189  -0.5224
  20 C   :3d0    0.0235   0.0473  -0.0399   0.0551   0.1345   0.1129
  21 C   :3d1+  -0.0258  -0.0207   0.0223  -0.0690  -0.0924  -0.0772
  22 C   :3d2+   0.0321  -0.0448   0.0853  -0.0046   0.0061   0.1636
  23 C   :3d0   -0.2085   0.6812  -0.3008   0.7931  -0.3652  -0.1489
  24 C   :3d1+  -0.0022  -0.4794   0.1581   0.1331   0.1514   0.3311
  25 C   :3d2+   0.1231  -0.3800   0.1435  -0.4105   0.1435   0.1366
  26 C   :1s    -0.0797  -0.0033   0.0277  -0.0007   0.0177   0.1345
  27 C   :1s    -0.7872  -0.0348   0.2711   0.0086   0.1732   0.9518
  28 C   :1s     1.6013  -0.1832   0.2563  -0.4385   0.2086  -0.1424
  29 C   :1s    -0.0434  -0.0017   0.0149  -0.0002   0.0100   0.0768
  30 C   :1s     0.2942  -0.0927   0.0477  -0.2181   0.0668  -1.2892
  31 C   :2px    0.6712  -0.4354  -0.1911  -0.0918  -0.0376  -0.1782
  32 C   :2pz    0.4800   0.6321   0.2765   0.1506   0.3599  -0.1728
  33 C   :2px   -0.3722   1.4387   0.1197   1.1291  -0.0096   0.6010
  34 C   :2pz   -0.3601  -2.5692   0.0903  -1.2554   0.0076   0.2715
  37 C   :2px    0.0910  -0.2789   0.0404  -0.2822   0.1024  -0.0015
  38 C   :2pz    0.1891   0.4475   0.0235   0.2489  -0.1009  -0.0576
  39 C   :3d0   -0.0084  -0.0231  -0.0201   0.0771   0.1888   0.0599
  40 C   :3d1+   0.0011  -0.0194   0.0053   0.0619   0.1157   0.0612
  41 C   :3d2+   0.0712   0.0036   0.0330  -0.0269  -0.0708   0.2384
  42 C   :3d0    0.0373  -0.6286  -0.0161  -0.3264   0.0322   0.0244
  43 C   :3d1+  -0.2454  -0.4203  -0.0598   0.0500  -0.1133  -0.0892
  44 C   :3d2+  -0.0055   0.3564   0.0184   0.2139   0.0328  -0.0546
  45 C   :2px   -0.4064  -0.7954  -0.2019   0.0624   0.3631  -0.3017
  46 C   :2px    1.1969   2.8793   0.0875   0.8840  -0.8228   1.0676
  48 C   :2px   -0.1472  -0.5408   0.0189  -0.3440   0.2199  -0.2531
  49 C   :3d1+  -0.0836   0.0479  -0.0037   0.1067   0.2283  -0.1897
  50 C   :3d1+   0.2562   0.8047   0.0059   0.3563  -0.2928   0.3627
  51 N   :2px   -0.0200  -0.1440  -0.4345   0.2837  -0.1236  -0.0160
  52 N   :2px    0.0340   0.0518   0.4497  -1.2106   0.4011  -0.0695
  54 N   :2px   -0.0473  -0.0308  -0.0275  -0.2442   0.2527  -0.0025
  55 N   :3d1+  -0.0067  -0.0411  -0.1073   0.1008  -0.0501  -0.0181
  56 N   :3d1+   0.0364  -0.0125   0.0931  -0.0584   0.2167   0.0050
  57 O   :1s     0.0092  -0.0124   0.0223   0.2127  -0.0817   0.0061
  58 O   :1s     0.0705  -0.1137   0.1303   1.5652  -0.5974   0.0369
  59 O   :1s    -0.0490   0.0817  -0.0800  -1.9394   0.8407  -0.0787
  60 O   :1s     0.0047  -0.0067   0.0104   0.1128  -0.0436   0.0027
  61 O   :1s    -0.0368   0.0025  -0.1436  -0.4235   0.2940  -0.0545
  62 O   :2px   -0.0765   0.0066  -0.2804  -0.2679  -0.0711   0.0514
  63 O   :2pz   -0.0920   0.0460  -0.2429   0.2106  -0.3574   0.0836
  64 O   :2px    0.0971  -0.0715   0.2590   0.2131   0.1983  -0.1079
  65 O   :2pz    0.1297  -0.0406   0.4004  -0.1913   0.5044  -0.1119
  68 O   :2px    0.0149  -0.0155   0.0275   0.0086   0.0472  -0.0302
  69 O   :2pz    0.0242  -0.0129   0.0882  -0.0159   0.0704  -0.0230
  70 O   :3d0    0.0007  -0.0025  -0.0175   0.0560  -0.0091  -0.0119
  71 O   :3d1+  -0.0022  -0.0069  -0.0180   0.0434  -0.0253   0.0019
  72 O   :3d2+  -0.0013   0.0081   0.0235  -0.0309   0.0058   0.0106
  73 O   :3d0   -0.0116   0.0067  -0.0571   0.0569  -0.0553   0.0131
  74 O   :3d1+   0.0042   0.0053   0.0240   0.0090   0.0230   0.0035
  75 O   :3d2+   0.0066  -0.0105   0.0218   0.0075   0.0043  -0.0072
  76 H   :1s     0.0156  -0.1962   0.6950   0.1907   0.1720   0.0398
  77 H   :1s     0.1378   0.0232  -0.0143   0.0687   0.1303   0.5122
  78 H   :1s    -0.0311   0.0022   0.0046   0.1035  -0.0218   0.0088
  79 H   :2px   -0.0030   0.0188  -0.0105   0.0023   0.0254   0.0103
  80 H   :2pz   -0.0088   0.0275  -0.0105   0.0026   0.0067   0.0084
  81 H   :2px    0.0633  -0.0410   0.0050  -0.0514   0.0849   0.1577
  82 H   :2pz   -0.0100  -0.0951   0.0197  -0.1167   0.0596  -0.0112
  83 H   :1s     0.7429  -0.0188  -0.1063   0.0049   0.0057   0.1700
  84 H   :1s    -0.1863  -0.0105   0.1428  -0.0625   0.1792   0.4440
  85 H   :1s     0.0811  -0.0059   0.0241  -0.0652   0.0204  -0.0520
  86 H   :2px   -0.0265  -0.0100  -0.0100   0.0084   0.0177   0.0182
  87 H   :2pz   -0.0059   0.0207   0.0158  -0.0107  -0.0438   0.0188
  88 H   :2px   -0.0639   0.0432   0.0457   0.0326   0.0876   0.1081
  89 H   :2pz   -0.0504  -0.0875   0.0048  -0.0271  -0.0447   0.0690
  90 H   :2px   -0.0100  -0.0274  -0.0050  -0.0208  -0.0502   0.0369
  91 H   :2px    0.0418   0.0870  -0.0106   0.0388  -0.1097   0.1060

 Molecular orbitals for symmetry species 3  (B2 )
 ------------------------------------------------

    Orbital         1        2        3        4        5        6        7
   1 C   :2py    0.1717   0.3307  -0.5398   0.0823  -0.7379   0.6148   0.5213
   2 C   :2py   -0.0391  -0.0233  -0.0011  -0.0144   0.1154  -0.2211  -0.4790
   4 C   :2py   -0.0309  -0.0047  -0.0291   0.0243  -0.0076   0.0055  -0.0448
   5 C   :3d1-   0.0133  -0.0157   0.0019   0.0428  -0.0008   0.0325  -0.2852
   6 C   :3d1-  -0.0654  -0.0088   0.0301  -0.0491   0.0308   0.0160   0.0052
   7 C   :2py    0.0887   0.3176  -0.2180  -0.2028   0.3370  -0.5709   0.1516
   8 C   :2py   -0.0417  -0.0400   0.0239  -0.0001  -0.0278   0.1433  -0.1145
  10 C   :2py    0.0146   0.0117  -0.0138  -0.0131   0.0036   0.0008  -0.0399
  11 C   :3d2-   0.0059   0.0135  -0.0187  -0.0009  -0.0363   0.0182   0.1318
  12 C   :3d1-  -0.0007  -0.0073  -0.0201   0.0109  -0.0572  -0.0212  -0.0429
  13 C   :3d2-  -0.0207  -0.0032   0.0126  -0.0182   0.0116   0.0191   0.0577
  14 C   :3d1-   0.0208   0.0005  -0.0108   0.0271  -0.0146  -0.0121  -0.1106
  15 C   :2py    0.0926   0.3101   0.2625  -0.0422   0.3182   0.6481  -0.2537
  16 C   :2py    0.0120  -0.0300  -0.0162   0.0258  -0.0437  -0.1846   0.1706
  18 C   :2py   -0.0080  -0.0008   0.0182   0.0068  -0.0059  -0.0073   0.0498
  19 C   :3d2-   0.0040   0.0120   0.0169   0.0135  -0.0365  -0.0292  -0.1033
  20 C   :3d1-   0.0021   0.0076  -0.0175  -0.0229   0.0612  -0.0113  -0.0143
  21 C   :3d2-   0.0030   0.0047  -0.0013   0.0002   0.0049  -0.0220  -0.0125
  22 C   :3d1-   0.0057   0.0025  -0.0042   0.0061   0.0161  -0.0125  -0.0647
  23 C   :2py    0.1037   0.3058   0.4898   0.2342  -0.6310  -0.6297  -0.4257
  24 C   :2py   -0.0149  -0.0377  -0.0054  -0.0236   0.0648   0.1632   0.4002
  26 C   :2py    0.0131   0.0070   0.0226  -0.0045   0.0058   0.0095   0.0568
  27 C   :3d1-   0.0045   0.0140   0.0109   0.0046   0.0019   0.0234  -0.2025
  28 C   :3d1-  -0.0071   0.0002   0.0060   0.0046  -0.0277   0.0179  -0.0482
  29 N   :2py    0.6594  -0.2087  -0.0273   0.6983   0.3409  -0.1170   0.3958
  30 N   :2py   -0.0560   0.0260  -0.0091  -0.0613  -0.0707   0.0440  -0.3366
  32 N   :2py    0.0452  -0.0154   0.0109  -0.0149   0.0234  -0.0160  -0.0493
  33 N   :3d1-   0.0142  -0.0148   0.0178  -0.0087   0.0248  -0.0319   0.1994
  34 N   :3d1-  -0.0421  -0.0059   0.0265  -0.0140   0.0113  -0.0079   0.1391
  35 O   :2py    0.3729  -0.1745   0.1111  -0.7436  -0.2165   0.0310   0.0014
  36 O   :2py   -0.0105   0.0031   0.0035   0.2319   0.0815  -0.0127  -0.0340
  38 O   :2py   -0.0004  -0.0025   0.0108   0.0143  -0.0056   0.0059   0.0349
  39 O   :3d2-   0.0170  -0.0068   0.0020   0.0172   0.0134  -0.0089   0.0864
  40 O   :3d1-  -0.0095   0.0029   0.0002  -0.0061  -0.0053   0.0034   0.0370
  41 O   :3d2-   0.0211  -0.0064   0.0006   0.0180   0.0112  -0.0064   0.0330
  42 O   :3d1-  -0.0083   0.0050  -0.0029   0.0004  -0.0056   0.0051   0.0331
  43 H   :2py    0.0018   0.0068  -0.0046  -0.0047   0.0086  -0.0183  -0.0254
  44 H   :2py   -0.0130  -0.0037   0.0070  -0.0072   0.0034   0.0103   0.0181
  45 H   :2py    0.0020   0.0070   0.0062  -0.0010   0.0069   0.0183   0.0209
  46 H   :2py   -0.0005   0.0023   0.0030  -0.0004   0.0008  -0.0098   0.0198
  47 H   :2py    0.0023   0.0068   0.0115   0.0050  -0.0151  -0.0196   0.0424
  48 H   :2py   -0.0037   0.0005   0.0081  -0.0012  -0.0039   0.0088   0.0424

    Orbital         8        9       10       11       12       13
   1 C   :2py   -0.1062  -0.6270   0.0662   0.1977   0.3083  -0.1617
   2 C   :2py    0.1278   0.5496   0.0149  -0.3760  -0.0394   0.2947
   4 C   :2py    0.0536  -0.0538   0.1974  -0.1471   0.1202   0.0523
   5 C   :3d1-   0.1575  -0.0864   0.0969   0.0976   0.2840  -0.2198
   6 C   :3d1-   0.0152  -0.1796   0.0934  -0.0918   0.0769  -0.0046
   7 C   :2py   -0.0923  -0.5935  -0.0444   0.1167  -0.2735  -0.4174
   8 C   :2py    0.1357   0.3632   0.1494  -0.2066   0.2143   0.4459
  10 C   :2py   -0.0393   0.0681  -0.0396   0.0362  -0.0396   0.0424
  11 C   :3d2-  -0.1354   0.0632  -0.0849   0.0849  -0.1867  -0.0335
  12 C   :3d1-   0.0952  -0.0184   0.0351  -0.2782  -0.1709  -0.1530
  13 C   :3d2-  -0.0654   0.0419   0.0046   0.0182  -0.0307   0.0258
  14 C   :3d1-   0.0344   0.0045  -0.0256  -0.0153  -0.0308  -0.0389
  15 C   :2py   -0.2565  -0.4722   0.0296  -0.1808  -0.1963   0.2085
  16 C   :2py    0.3412   0.3949  -0.0705   0.1601   0.1394  -0.2716
  18 C   :2py    0.0439  -0.0062   0.0055   0.0089   0.0249  -0.0347
  19 C   :3d2-  -0.2105   0.0743  -0.0542  -0.0084  -0.0290  -0.1430
  20 C   :3d1-  -0.1019   0.0236  -0.0474   0.2388   0.2263   0.0981
  21 C   :3d2-  -0.0575   0.0835  -0.0429   0.0351   0.0082  -0.0592
  22 C   :3d1-  -0.0401   0.0615  -0.0307   0.0550   0.0642  -0.0218
  23 C   :2py   -0.3243  -0.5087   0.1012  -0.0162   0.2184   0.6825
  24 C   :2py    0.3620   0.3147  -0.0315   0.0709  -0.1218  -0.5922
  26 C   :2py    0.0252   0.0406  -0.0446   0.0278  -0.0324  -0.0906
  27 C   :3d1-  -0.2629   0.1021  -0.0415  -0.1760  -0.0178  -0.2915
  28 C   :3d1-  -0.1008   0.0748   0.0121  -0.0680  -0.0118  -0.0670
  29 N   :2py   -0.3258   0.0579   0.8784  -0.0157   0.0121  -0.2966
  30 N   :2py    0.2561   0.0099  -0.8792   0.1195   0.0850   0.1518
  32 N   :2py   -0.0690   0.1187  -0.2312   0.0973  -0.1172   0.0610
  33 N   :3d1-  -0.1007   0.0069  -0.0998  -0.3110   0.0213   0.2668
  34 N   :3d1-  -0.0360  -0.0775  -0.0427  -0.1735   0.1309   0.0029
  35 O   :2py   -0.1159   0.0727   0.5744  -0.0649   0.1743  -0.0234
  36 O   :2py    0.1464  -0.0809  -0.6308   0.1730  -0.3157  -0.0061
  38 O   :2py    0.0480  -0.0684  -0.0161   0.0001   0.0120  -0.0507
  39 O   :3d2-  -0.0531  -0.0000   0.0317  -0.1783   0.1545   0.1165
  40 O   :3d1-   0.0015  -0.0449  -0.1284  -0.1157   0.2885  -0.1985
  41 O   :3d2-  -0.0127  -0.0051  -0.0324  -0.0683   0.0346   0.0510
  42 O   :3d1-  -0.0082  -0.0288  -0.0640  -0.0776   0.2041  -0.1192
  43 H   :2py    0.0293  -0.0015   0.0161  -0.0604   0.0127  -0.0122
  44 H   :2py   -0.0203   0.0376   0.0119  -0.0243   0.0006   0.0018
  45 H   :2py    0.0443   0.0010   0.0114  -0.0332  -0.0314   0.0031
  46 H   :2py    0.0003   0.0565  -0.0110   0.0058  -0.0046  -0.0346
  47 H   :2py    0.0500  -0.0103   0.0054   0.0679   0.0227   0.0833
  48 H   :2py    0.0015   0.0429  -0.0003   0.0327   0.0091  -0.0050

 Molecular orbitals for symmetry species 4  (A2 )
 ------------------------------------------------

    Orbital         1        2        3        4        5        6        7
   1 C   :3d2-  -0.0052  -0.0317   0.0951  -0.0641   0.1429  -0.2879   0.0034
   2 C   :3d2-  -0.0359  -0.0148   0.0237  -0.1714   0.0258  -0.0069   0.1055
   3 C   :2py    0.0337   0.4376  -0.5836  -0.2094  -0.3567  -0.0805  -0.0382
   4 C   :2py   -0.0312  -0.0115   0.0626  -0.0080   0.4086   0.1356   0.0970
   6 C   :2py   -0.0061   0.0210   0.0092  -0.0158   0.0784   0.0307   0.0362
   7 C   :3d2-  -0.0003   0.0017  -0.0205  -0.0210  -0.2149   0.0998  -0.0139
   8 C   :3d1-  -0.0001  -0.0173  -0.0385   0.0709   0.0786   0.2562  -0.0318
   9 C   :3d2-  -0.0096  -0.0028  -0.0235  -0.0552  -0.0709   0.0330   0.0278
  10 C   :3d1-   0.0048  -0.0083   0.0114   0.0402   0.0129   0.0496   0.0122
  11 C   :2py    0.0192   0.4316   0.6143  -0.0245  -0.4333  -0.0955   0.0195
  12 C   :2py    0.0086  -0.0105  -0.0793   0.0984   0.4060   0.0800  -0.0172
  14 C   :2py    0.0042   0.0262  -0.0102   0.0304   0.0706   0.0069  -0.0191
  15 C   :3d2-  -0.0000   0.0008   0.0189  -0.0097  -0.2140   0.0928  -0.0423
  16 C   :3d1-   0.0015   0.0176  -0.0378  -0.0612  -0.0879  -0.2620   0.0428
  17 C   :3d2-   0.0031   0.0026   0.0232   0.0033  -0.0990   0.0072  -0.0250
  18 C   :3d1-   0.0063  -0.0010   0.0093   0.0179  -0.0094  -0.0646   0.0048
  19 C   :3d2-  -0.0011  -0.0293  -0.0838  -0.0295   0.1002  -0.2530   0.0670
  20 C   :3d2-  -0.0006  -0.0012  -0.0139  -0.0216  -0.0455  -0.0681   0.0049
  21 N   :3d2-  -0.0559   0.0034   0.0031  -0.1413   0.0540  -0.0103  -0.4857
  22 N   :3d2-  -0.0062   0.0026   0.0045  -0.0711  -0.0131  -0.0461  -0.1786
  23 O   :2py    0.6588  -0.0557   0.0549  -0.8592   0.1782   0.2827   0.1185
  24 O   :2py    0.0261  -0.0016  -0.0260   0.8727  -0.2149  -0.3863  -0.3769
  26 O   :2py    0.0699  -0.0077  -0.0056   0.1985  -0.0537  -0.0928  -0.1331
  27 O   :3d2-   0.0109  -0.0010   0.0004  -0.0022  -0.0118   0.0201   0.2418
  28 O   :3d1-  -0.0070   0.0003   0.0002  -0.0435   0.0084  -0.0139  -0.2113
  29 O   :3d2-   0.0195  -0.0011  -0.0011   0.0309  -0.0230  -0.0135   0.1002
  30 O   :3d1-  -0.0156   0.0003   0.0010  -0.0697   0.0185   0.0123  -0.1001
  31 H   :2py    0.0014   0.0102  -0.0138   0.0083   0.0417   0.0056  -0.0065
  32 H   :2py    0.0002   0.0035  -0.0012   0.0026   0.0235   0.0041  -0.0042
  33 H   :2py    0.0005   0.0102   0.0135   0.0083   0.0460   0.0116   0.0042
  34 H   :2py    0.0017   0.0060   0.0029   0.0112   0.0253   0.0049  -0.0020

    Orbital         8        9       10       11       12
   1 C   :3d2-   0.3930  -0.0384  -0.0114  -0.2239  -0.7695
   2 C   :3d2-   0.0237  -0.2583  -0.0956   0.1870  -0.1706
   3 C   :2py    0.2683   0.0416   0.5189  -0.6625  -0.1827
   4 C   :2py   -0.1526  -0.1833  -0.6136   0.7692  -0.2130
   5 C   :2py    0.0014   0.0003   0.0026  -0.0107  -0.0078
   6 C   :2py   -0.0213  -0.0099  -0.0918  -0.0460  -0.0165
   7 C   :3d2-  -0.2454   0.0160  -0.2749  -0.1945  -0.3358
   8 C   :3d1-  -0.0473   0.0216   0.1736   0.2312  -0.3051
   9 C   :3d2-  -0.0707  -0.0792  -0.0946   0.0927  -0.1956
  10 C   :3d1-   0.0018  -0.0821   0.0069   0.1072   0.0249
  11 C   :2py   -0.2777   0.0146   0.6259   0.4965  -0.2461
  12 C   :2py    0.1690  -0.0202  -0.7072  -0.4326  -0.0041
  13 C   :2py   -0.0019  -0.0001   0.0050   0.0094  -0.0107
  14 C   :2py    0.0259  -0.0052  -0.0836   0.0733  -0.0329
  15 C   :3d2-   0.2858  -0.0612  -0.2077   0.2242  -0.2582
  16 C   :3d1-  -0.0602  -0.0341  -0.1152   0.2572   0.2379
  17 C   :3d2-   0.0845   0.0177  -0.0827  -0.0394  -0.1467
  18 C   :3d1-   0.0062  -0.0373  -0.0207   0.0633   0.0206
  19 C   :3d2-  -0.3770   0.0201   0.0095   0.2113  -0.7111
  20 C   :3d2-  -0.0459   0.0290  -0.0441   0.0243  -0.1577
  21 N   :3d2-  -0.0610  -0.0814  -0.0019   0.0390  -0.2322
  22 N   :3d2-   0.0328   0.2960  -0.0079  -0.1645  -0.2279
  23 O   :2py   -0.0588  -0.1554  -0.0082   0.1225   0.0420
  24 O   :2py    0.0843   0.3538   0.0078  -0.2585  -0.2555
  26 O   :2py    0.0074   0.0393   0.0119  -0.0292  -0.0525
  27 O   :3d2-   0.0609   0.3193  -0.0253   0.0265  -0.1418
  28 O   :3d1-  -0.0006   0.3722  -0.0304   0.0662   0.1517
  29 O   :3d2-   0.0448   0.2669  -0.0146  -0.0252  -0.0899
  30 O   :3d1-   0.0008   0.1849  -0.0116   0.0569   0.0581
  31 H   :2py    0.0726  -0.0048   0.0809   0.1125  -0.0671
  32 H   :2py    0.0239  -0.0089  -0.0112   0.0331  -0.0874
  33 H   :2py   -0.0776   0.0223   0.0457  -0.1293  -0.0593
  34 H   :2py   -0.0232   0.0098  -0.0235  -0.0413  -0.0730

  Total CPU  time used in SIRIUS : 14 minutes 49 seconds
  Total wall time used in SIRIUS : 14 minutes 53 seconds

 
     Date and time (Linux)  : Wed Jun 26 11:19:07 2019
     Host name              : Lab2-333-NPs                            


                     .---------------------------------------.
                     | End of Wave Function Section (SIRIUS) |
                     `---------------------------------------'



                 .------------------------------------------------.
                 | Starting in Dynamic Property Section (RESPONS) |
                 `------------------------------------------------'


 ------------------------------------------------------------------------------
  RESPONSE  -  an MCSCF, MC-srDFT, DFT, and SOPPA response property program
 ------------------------------------------------------------------------------


 -------- OUTPUT FROM RESPONSE INPUT PROCESSING --------




   SCF energy         :     -434.235878878538756
 -- inactive part     :     -846.371294145605702
 -- nuclear repulsion :      412.135415267066946


                     ***************************************
                     *** RHF response calculation (TDHF) ***
                     ***************************************


  Total CPU  time used in RESPONSE:   0.00 seconds
  Total wall time used in RESPONSE:   0.00 seconds


                   .-------------------------------------------.
                   | End of Dynamic Property Section (RESPONS) |
                   `-------------------------------------------'

  Total CPU  time used in DALTON: 14 minutes 49 seconds
  Total wall time used in DALTON: 14 minutes 54 seconds

 
     Date and time (Linux)  : Wed Jun 26 11:19:07 2019
     Host name              : Lab2-333-NPs                            
