

     ************************************************************************
     *************** Dalton - An Electronic Structure Program ***************
     ************************************************************************

    This is output from DALTON release Dalton2018.1 (2019)
         ( Web site: http://daltonprogram.org )

   ----------------------------------------------------------------------------

    NOTE:
     
    Dalton is an experimental code for the evaluation of molecular
    properties using (MC)SCF, DFT, CI, and CC wave functions.
    The authors accept no responsibility for the performance of
    the code or for the correctness of the results.
     
    The code (in whole or part) is provided under a licence and
    is not to be reproduced for further distribution without
    the written permission of the authors or their representatives.
     
    See the home page "http://daltonprogram.org" for further information.
     
    If results obtained with this code are published,
    the appropriate citations would be both of:
     
       K. Aidas, C. Angeli, K. L. Bak, V. Bakken, R. Bast,
       L. Boman, O. Christiansen, R. Cimiraglia, S. Coriani,
       P. Dahle, E. K. Dalskov, U. Ekstroem,
       T. Enevoldsen, J. J. Eriksen, P. Ettenhuber, B. Fernandez,
       L. Ferrighi, H. Fliegl, L. Frediani, K. Hald, A. Halkier,
       C. Haettig, H. Heiberg, T. Helgaker, A. C. Hennum,
       H. Hettema, E. Hjertenaes, S. Hoest, I.-M. Hoeyvik,
       M. F. Iozzi, B. Jansik, H. J. Aa. Jensen, D. Jonsson,
       P. Joergensen, J. Kauczor, S. Kirpekar,
       T. Kjaergaard, W. Klopper, S. Knecht, R. Kobayashi, H. Koch,
       J. Kongsted, A. Krapp, K. Kristensen, A. Ligabue,
       O. B. Lutnaes, J. I. Melo, K. V. Mikkelsen, R. H. Myhre,
       C. Neiss, C. B. Nielsen, P. Norman, J. Olsen,
       J. M. H. Olsen, A. Osted, M. J. Packer, F. Pawlowski,
       T. B. Pedersen, P. F. Provasi, S. Reine, Z. Rinkevicius,
       T. A. Ruden, K. Ruud, V. Rybkin, P. Salek, C. C. M. Samson,
       A. Sanchez de Meras, T. Saue, S. P. A. Sauer,
       B. Schimmelpfennig, K. Sneskov, A. H. Steindal,
       K. O. Sylvester-Hvid, P. R. Taylor, A. M. Teale,
       E. I. Tellgren, D. P. Tew, A. J. Thorvaldsen, L. Thoegersen,
       O. Vahtras, M. A. Watson, D. J. D. Wilson, M. Ziolkowski
       and H. Agren,
       "The Dalton quantum chemistry program system",
       WIREs Comput. Mol. Sci. 2014, 4:269–284 (doi: 10.1002/wcms.1172)
     
    and
     
       Dalton, a molecular electronic structure program,
       Release Dalton2018.1 (2019), see http://daltonprogram.org
   ----------------------------------------------------------------------------

    Authors in alphabetical order (major contribution(s) in parenthesis):

  Kestutis Aidas,           Vilnius University,           Lithuania   (QM/MM)
  Celestino Angeli,         University of Ferrara,        Italy       (NEVPT2)
  Keld L. Bak,              UNI-C,                        Denmark     (AOSOPPA, non-adiabatic coupling, magnetic properties)
  Vebjoern Bakken,          University of Oslo,           Norway      (DALTON; geometry optimizer, symmetry detection)
  Radovan Bast,             UiT The Arctic U. of Norway,  Norway      (DALTON installation and execution frameworks)
  Pablo Baudin,             University of Valencia,       Spain       (Cholesky excitation energies)
  Linus Boman,              NTNU,                         Norway      (Cholesky decomposition and subsystems)
  Ove Christiansen,         Aarhus University,            Denmark     (CC module)
  Renzo Cimiraglia,         University of Ferrara,        Italy       (NEVPT2)
  Sonia Coriani,            Technical Univ. of Denmark,   Denmark     (CC module, MCD in RESPONS)
  Janusz Cukras,            University of Trieste,        Italy       (MChD in RESPONS)
  Paal Dahle,               University of Oslo,           Norway      (Parallelization)
  Erik K. Dalskov,          UNI-C,                        Denmark     (SOPPA)
  Thomas Enevoldsen,        Univ. of Southern Denmark,    Denmark     (SOPPA)
  Janus J. Eriksen,         Aarhus University,            Denmark     (Polarizable embedding model, TDA)
  Rasmus Faber,             University of Copenhagen,     Denmark     (Vib.avg. NMR with SOPPA, parallel AO-SOPPA)
  Tobias Fahleson,          KTH Stockholm,                Sweden      (Damped cubic response)
  Berta Fernandez,          U. of Santiago de Compostela, Spain       (doublet spin, ESR in RESPONS)
  Lara Ferrighi,            Aarhus University,            Denmark     (PCM Cubic response)
  Heike Fliegl,             University of Oslo,           Norway      (CCSD(R12))
  Luca Frediani,            UiT The Arctic U. of Norway,  Norway      (PCM)
  Bin Gao,                  UiT The Arctic U. of Norway,  Norway      (Gen1Int library)
  Christof Haettig,         Ruhr-University Bochum,       Germany     (CC module)
  Kasper Hald,              Aarhus University,            Denmark     (CC module)
  Asger Halkier,            Aarhus University,            Denmark     (CC module)
  Frederik Beyer Hansen,    University of Copenhagen,     Denmark     (Parallel AO-SOPPA)
  Erik D. Hedegaard,        Univ. of Southern Denmark,    Denmark     (Polarizable embedding model, QM/MM)
  Hanne Heiberg,            University of Oslo,           Norway      (geometry analysis, selected one-electron integrals)
  Trygve Helgaker,          University of Oslo,           Norway      (DALTON; ABACUS, ERI, DFT modules, London, and much more)
  Alf Christian Hennum,     University of Oslo,           Norway      (Parity violation)
  Hinne Hettema,            University of Auckland,       New Zealand (quadratic response in RESPONS; SIRIUS supersymmetry)
  Eirik Hjertenaes,         NTNU,                         Norway      (Cholesky decomposition)
  Pi A. B. Haase,           University of Copenhagen,     Denmark     (Triplet AO-SOPPA)
  Maria Francesca Iozzi,    University of Oslo,           Norway      (RPA)
  Christoph Jacob           TU Braunschweig               Germany     (Frozen density embedding model)
  Brano Jansik              Technical Univ. of Ostrava    Czech Rep.  (DFT cubic response)
  Hans Joergen Aa. Jensen,  Univ. of Southern Denmark,    Denmark     (DALTON; SIRIUS, RESPONS, ABACUS modules, London, and much more)
  Dan Jonsson,              UiT The Arctic U. of Norway,  Norway      (cubic response in RESPONS module)
  Poul Joergensen,          Aarhus University,            Denmark     (RESPONS, ABACUS, and CC modules)
  Maciej Kaminski,          University of Warsaw,         Poland      (CPPh in RESPONS)
  Joanna Kauczor,           Linkoeping University,        Sweden      (Complex polarization propagator (CPP) module)
  Sheela Kirpekar,          Univ. of Southern Denmark,    Denmark     (Mass-velocity & Darwin integrals)
  Wim Klopper,              KIT Karlsruhe,                Germany     (R12 code in CC, SIRIUS, and ABACUS modules)
  Stefan Knecht,            ETH Zurich,                   Switzerland (Parallel CI and MCSCF)
  Rika Kobayashi,           Australian National Univ.,    Australia   (DIIS in CC, London in MCSCF)
  Henrik Koch,              NTNU,                         Norway      (CC module, Cholesky decomposition)
  Jacob Kongsted,           Univ. of Southern Denmark,    Denmark     (Polarizable embedding model, QM/MM)
  Andrea Ligabue,           University of Modena,         Italy       (CTOCD, AOSOPPA)
  Nanna H. List             Univ. of Southern Denmark,    Denmark     (Polarizable embedding model)
  Ola B. Lutnaes,           University of Oslo,           Norway      (DFT Hessian)
  Juan I. Melo,             University of Buenos Aires,   Argentina   (LRESC, Relativistic Effects on NMR Shieldings)
  Kurt V. Mikkelsen,        University of Copenhagen,     Denmark     (MC-SCRF and QM/MM)
  Rolf H. Myhre,            NTNU,                         Norway      (Subsystems and CC3)
  Christian Neiss,          Univ. Erlangen-Nuernberg,     Germany     (CCSD(R12))
  Christian B. Nielsen,     University of Copenhagen,     Denmark     (QM/MM)
  Patrick Norman,           KTH Stockholm,                Sweden      (Cubic response and complex frequency response in RESPONS)
  Jeppe Olsen,              Aarhus University,            Denmark     (SIRIUS CI/density modules)
  Jogvan Magnus H. Olsen,   Univ. of Southern Denmark,    Denmark     (Polarizable embedding model, QM/MM)
  Anders Osted,             Copenhagen University,        Denmark     (QM/MM)
  Martin J. Packer,         University of Sheffield,      UK          (SOPPA)
  Filip Pawlowski,          Kazimierz Wielki University,  Poland      (CC3)
  Morten N. Pedersen,       Univ. of Southern Denmark,    Denmark     (Polarizable embedding model)
  Thomas B. Pedersen,       University of Oslo,           Norway      (Cholesky decomposition)
  Patricio F. Provasi,      University of Northeastern,   Argentina   (Analysis of coupling constants in localized orbitals)
  Zilvinas Rinkevicius,     KTH Stockholm,                Sweden      (open-shell DFT, ESR)
  Elias Rudberg,            KTH Stockholm,                Sweden      (DFT grid and basis info)
  Torgeir A. Ruden,         University of Oslo,           Norway      (Numerical derivatives in ABACUS)
  Kenneth Ruud,             UiT The Arctic U. of Norway,  Norway      (DALTON; ABACUS magnetic properties and much more)
  Pawel Salek,              KTH Stockholm,                Sweden      (DALTON; DFT code)
  Claire C. M. Samson       University of Karlsruhe       Germany     (Boys localization, r12 integrals in ERI)
  Alfredo Sanchez de Meras, University of Valencia,       Spain       (CC module, Cholesky decomposition)
  Trond Saue,               Paul Sabatier University,     France      (direct Fock matrix construction)
  Stephan P. A. Sauer,      University of Copenhagen,     Denmark     (SOPPA(CCSD), SOPPA prop., AOSOPPA, vibrational g-factors)
  Andre S. P. Gomes,        CNRS/Universite de Lille,     France      (Frozen density embedding model)
  Bernd Schimmelpfennig,    Forschungszentrum Karlsruhe,  Germany     (AMFI module)
  Kristian Sneskov,         Aarhus University,            Denmark     (Polarizable embedding model, QM/MM)
  Arnfinn H. Steindal,      UiT The Arctic U. of Norway,  Norway      (parallel QM/MM, Polarizable embedding model)
  Casper Steinmann,         Univ. of Southern Denmark,    Denmark     (QFIT, Polarizable embedding model)
  K. O. Sylvester-Hvid,     University of Copenhagen,     Denmark     (MC-SCRF)
  Peter R. Taylor,          VLSCI/Univ. of Melbourne,     Australia   (Symmetry handling ABACUS, integral transformation)
  Andrew M. Teale,          University of Nottingham,     England     (DFT-AC, DFT-D)
  David P. Tew,             University of Bristol,        England     (CCSD(R12))
  Olav Vahtras,             KTH Stockholm,                Sweden      (triplet response, spin-orbit, ESR, TDDFT, open-shell DFT)
  Lucas Visscher,           Vrije Universiteit Amsterdam, Netherlands (Frozen density embedding model)
  David J. Wilson,          La Trobe University,          Australia   (DFT Hessian and DFT magnetizabilities)
  Hans Agren,               KTH Stockholm,                Sweden      (SIRIUS module, RESPONS, MC-SCRF solvation model)
 --------------------------------------------------------------------------------

     Date and time (Linux)  : Tue Jul  9 10:29:25 2019
     Host name              : Lab2-333-NPs                            

 * Work memory size             :  1536000000 = 11.444 gigabytes.

 * Directories for basis set searches:
   1) /home/lab333/dalton/build_2018_atlas
   2) /home/lab333/dalton/build_2018_atlas/basis


Compilation information
-----------------------

 Who compiled             | lab333
 Host                     | Lab2-333-NPs
 System                   | Linux-4.4.0-43-Microsoft
 CMake generator          | Unix Makefiles
 Processor                | x86_64
 64-bit integers          | OFF
 MPI                      | OFF
 Fortran compiler         | /usr/bin/gfortran
 Fortran compiler version | GNU Fortran (Ubuntu 7.3.0-27ubuntu1~18.04) 7.3.0
 C compiler               | /usr/bin/gcc
 C compiler version       | gcc (Ubuntu 7.3.0-27ubuntu1~18.04) 7.3.0
 C++ compiler             | /usr/bin/g++
 C++ compiler version     | g++ (Ubuntu 7.3.0-27ubuntu1~18.04) 7.3.0
 BLAS                     | /usr/lib/x86_64-linux-gnu/libf77blas.so;/usr/lib/x
                          | 86_64-linux-gnu/libcblas.so;/usr/lib/x86_64-linux-
                          | gnu/libatlas.so
 LAPACK                   | /usr/lib/x86_64-linux-gnu/libatlas.so;/usr/lib/x86
                          | _64-linux-gnu/atlas/liblapack.so
 Static linking           | OFF
 Last Git revision        | da625bf48c74028e805616daee31bc5d76b3a20d
 Git branch               | (HEAD detached at Dalton2018.1)
 Configuration time       | 2019-01-18 10:20:51.437510


   Content of the .dal input file
 ----------------------------------

**DALTON INPUT
.RUN RESPONSE
.DIRECT
**WAVE FUNCTIONS
.HF
.MP2
.MCSCF
*CONFIGURATION INPUT
.SPIN MULTIPLICITY
1
.SYMMETRY
1
.INACTIVE ORBITALS
16 11 2 0
.CAS SPACE
1 1 1 2
.ELECTRONS
10
*ORBITAL INPUT
.MOSTART
.HUCKEL
*OPTIMIZATION
.DETERMINANTS
*CI VECTOR
.PLUS COMBINATIONS
**RESPONSE
*CUBIC
.DIPLEN
**END OF DALTON INPUT


   Content of the .mol file
 ----------------------------

BASIS
aug-cc-pCVDZ
 nitrobenzene
 Generated by the Dalton Input File Plugin for Avogadro
Atomtypes=4 Angstrom Generators=2 X Y
Charge=6.0 Atoms=4
C        0.0000000000            0.0000000000           -0.0265759623
C       -1.2190534920            0.0000000000           -0.6979856948
C       -1.2105095870            0.0000000000           -2.0897394457
C        0.0000000000            0.0000000000           -2.7841484631
Charge=7.0 Atoms=1
N        0.0000000000            0.0000000000            1.4549291696
Charge=8.0 Atoms=1
O       -1.0847503743            0.0000000000            2.0235779798
Charge=1.0 Atoms=3
H       -2.1410602955            0.0000000000           -0.1327964319
H       -2.1492827751            0.0000000000           -2.6311811056
H        0.0000000000            0.0000000000           -3.8683953478


       *******************************************************************
       *********** Output from DALTON general input processing ***********
       *******************************************************************

 --------------------------------------------------------------------------------
   Overall default print level:    0
   Print level for DALTON.STAT:    1

    AO-direct calculation (in sections where implemented)
    HERMIT 1- and 2-electron integral sections will be executed
    "Old" integral transformation used (limited to max 255 basis functions)
    Wave function sections will be executed (SIRIUS module)
    Dynamic molecular response properties section will be executed (RESPONSE module)
 --------------------------------------------------------------------------------


   ****************************************************************************
   *************** Output of molecule and basis set information ***************
   ****************************************************************************


    The two title cards from your ".mol" input:
    ------------------------------------------------------------------------
 1:  nitrobenzene                                                           
 2:  Generated by the Dalton Input File Plugin for Avogadro                 
    ------------------------------------------------------------------------

  Coordinates are entered in Angstrom and converted to atomic units.
          - Conversion factor : 1 bohr = 0.52917721 A

  Atomic type no.    1
  --------------------
  Nuclear charge:   6.00000
  Number of symmetry independent centers:    4
  Number of basis sets to read;    2
  Basis set file used for this atomic type with Z =   6 :
     "/home/lab333/dalton/build_2018_atlas/basis/aug-cc-pCVDZ"

  Atomic type no.    2
  --------------------
  Nuclear charge:   7.00000
  Number of symmetry independent centers:    1
  Number of basis sets to read;    2
  Basis set file used for this atomic type with Z =   7 :
     "/home/lab333/dalton/build_2018_atlas/basis/aug-cc-pCVDZ"

  Atomic type no.    3
  --------------------
  Nuclear charge:   8.00000
  Number of symmetry independent centers:    1
  Number of basis sets to read;    2
  Basis set file used for this atomic type with Z =   8 :
     "/home/lab333/dalton/build_2018_atlas/basis/aug-cc-pCVDZ"

  Atomic type no.    4
  --------------------
  Nuclear charge:   1.00000
  Number of symmetry independent centers:    3
  Number of basis sets to read;    2
  Basis set file used for this atomic type with Z =   1 :
     "/home/lab333/dalton/build_2018_atlas/basis/aug-cc-pCVDZ"


                         SYMGRP: Point group information
                         -------------------------------

@    Point group: C2v

@  * The irrep name for each symmetry:    1: A1     2: B1     3: B2     4: A2 

   * The point group was generated by:

      Reflection in the yz-plane
      Reflection in the xz-plane

   * Group multiplication table

        |  E   C2z  Oxz  Oyz
   -----+--------------------
     E  |  E   C2z  Oxz  Oyz
    C2z | C2z   E   Oyz  Oxz
    Oxz | Oxz  Oyz   E   C2z
    Oyz | Oyz  Oxz  C2z   E 

   * Character table

        |  E   C2z  Oxz  Oyz
   -----+--------------------
    A1  |   1    1    1    1
    B1  |   1   -1    1   -1
    B2  |   1   -1   -1    1
    A2  |   1    1   -1   -1

   * Direct product table

        | A1   B1   B2   A2 
   -----+--------------------
    A1  | A1   B1   B2   A2 
    B1  | B1   A1   A2   B2 
    B2  | B2   A2   A1   B1 
    A2  | A2   B2   B1   A1 


                                 Isotopic Masses
                                 ---------------

                           C          12.000000
                           C   _1     12.000000
                           C   _2     12.000000
                           C   _1     12.000000
                           C   _2     12.000000
                           C          12.000000
                           N          14.003074
                           O   _1     15.994915
                           O   _2     15.994915
                           H   _1      1.007825
                           H   _2      1.007825
                           H   _1      1.007825
                           H   _2      1.007825
                           H           1.007825

                       Total mass:   123.032029 amu
                       Natural abundance:  92.716 %

 Center-of-mass coordinates (a.u.):    0.000000    0.000000   -0.383938


  Atoms and basis sets
  --------------------

  Number of atom types :    4
  Total number of atoms:   14

  Basis set used is "aug-cc-pCVDZ" from the basis set library.

  label    atoms   charge   prim   cont     basis
  ----------------------------------------------------------------------
  C           6    6.0000    39    27      [11s6p2d|5s4p2d]                                   
  N           1    7.0000    39    27      [11s6p2d|5s4p2d]                                   
  O           2    8.0000    39    27      [11s6p2d|5s4p2d]                                   
  H           5    1.0000    11     9      [5s2p|3s2p]                                        
  ----------------------------------------------------------------------
  total:     14   64.0000   406   288
  ----------------------------------------------------------------------
  Spherical harmonic basis used.

  Threshold for neglecting AO integrals:  1.00D-12


  Symmetry Coordinates
  --------------------

  Number of coordinates in each symmetry:    14   14    9    5


   Interatomic separations (in Angstrom):
   --------------------------------------

            C           C   _1      C   _2      C   _1      C   _2      C     
            ------      ------      ------      ------      ------      ------
 C     :    0.000000
 C   _1:    1.391719    0.000000
 C   _2:    1.391719    2.438107    0.000000
 C   _1:    2.392065    1.391780    2.799956    0.000000
 C   _2:    2.392065    2.799956    1.391780    2.421019    0.000000
 C     :    2.757573    2.416230    2.416230    1.395542    1.395542    0.000000
 N     :    1.481505    2.474093    2.474093    3.745665    3.745665    4.239078
 O   _1:    2.319443    2.724875    3.565729    4.115239    4.710371    4.928582
 O   _2:    2.319443    3.565729    2.724875    4.710371    4.115239    4.928582
 H   _1:    2.143694    1.081451    3.407316    2.166922    3.881063    3.407904
 H   _2:    2.143694    3.407316    1.081451    3.881063    2.166922    3.407904
 H   _1:    3.376890    2.145360    3.883675    1.083722    3.403140    2.154719
 H   _2:    3.376890    3.883675    2.145360    3.403140    1.083722    2.154719
 H     :    3.841819    3.396703    3.396703    2.151500    2.151500    1.084247

            N           O   _1      O   _2      H   _1      H   _2      H   _1
            ------      ------      ------      ------      ------      ------
 N     :    0.000000
 O   _1:    1.224763    0.000000
 O   _2:    1.224763    2.169501    0.000000
 H   _1:    2.665523    2.401196    3.880181    0.000000
 H   _2:    2.665523    3.880181    2.401196    4.282121    0.000000
 H   _1:    4.616894    4.774936    5.667958    2.498398    4.964773    0.000000
 H   _2:    4.616894    5.667958    4.774936    4.964773    2.498398    4.298566
 H     :    5.323325    5.990996    5.990996    4.305675    4.305675    2.479943

            H   _2      H     
            ------      ------
 H   _2:    0.000000
 H     :    2.479943    0.000000


  Max    interatomic separation is    5.9910 Angstrom (   11.3213 Bohr)
  between atoms   14 and    8, "H     " and "O   _1".

  Min HX interatomic separation is    1.0815 Angstrom (    2.0436 Bohr)

  Min YX interatomic separation is    1.2248 Angstrom (    2.3145 Bohr)


  Bond distances (Angstrom):
  --------------------------

                  atom 1     atom 2       distance
                  ------     ------       --------
  bond distance:  C   _1     C            1.391719
  bond distance:  C   _2     C            1.391719
  bond distance:  C   _1     C   _1       1.391780
  bond distance:  C   _2     C   _2       1.391780
  bond distance:  C          C   _1       1.395542
  bond distance:  C          C   _2       1.395542
  bond distance:  N          C            1.481505
  bond distance:  O   _1     N            1.224763
  bond distance:  O   _2     N            1.224763
  bond distance:  H   _1     C   _1       1.081451
  bond distance:  H   _2     C   _2       1.081451
  bond distance:  H   _1     C   _1       1.083722
  bond distance:  H   _2     C   _2       1.083722
  bond distance:  H          C            1.084247


  Bond angles (degrees):
  ----------------------

                  atom 1     atom 2     atom 3         angle
                  ------     ------     ------         -----
  bond angle:     C   _1     C          C   _2       122.311
  bond angle:     C   _1     C          N            118.844
  bond angle:     C   _2     C          N            118.844
  bond angle:     C          C   _1     C   _1       118.493
  bond angle:     C          C   _1     H   _1       119.647
  bond angle:     C   _1     C   _1     H   _1       121.860
  bond angle:     C          C   _2     C   _2       118.493
  bond angle:     C          C   _2     H   _2       119.647
  bond angle:     C   _2     C   _2     H   _2       121.860
  bond angle:     C   _1     C   _1     C            120.192
  bond angle:     C   _1     C   _1     H   _1       119.623
  bond angle:     C          C   _1     H   _1       120.185
  bond angle:     C   _2     C   _2     C            120.192
  bond angle:     C   _2     C   _2     H   _2       119.623
  bond angle:     C          C   _2     H   _2       120.185
  bond angle:     C   _1     C          C   _2       120.319
  bond angle:     C   _1     C          H            119.841
  bond angle:     C   _2     C          H            119.841
  bond angle:     C          N          O   _1       117.664
  bond angle:     C          N          O   _2       117.664
  bond angle:     O   _1     N          O   _2       124.671




 Principal moments of inertia (u*A**2) and principal axes
 --------------------------------------------------------

   IA     127.027245          0.000000    0.000000    1.000000
   IB     394.156158          1.000000    0.000000    0.000000
   IC     521.183403          0.000000    1.000000    0.000000


 Rotational constants
 --------------------

@    The molecule is planar.

               A                   B                   C

           3978.5088           1282.1797            969.6759 MHz
            0.132709            0.042769            0.032345 cm-1


@  Nuclear repulsion energy :  412.135415267067 Hartree


  Symmetry Orbitals
  -----------------

  Number of orbitals in each symmetry:         115   91   48   34


  Symmetry  A1 ( 1)

    1     C        1s         1
    2     C        1s         2
    3     C        1s         3
    4     C        1s         4
    5     C        1s         5
    6     C        2pz        8
    7     C        2pz       11
    8     C        2pz       14
    9     C        2pz       17
   10     C        3d0       20
   11     C        3d2+      22
   12     C        3d0       25
   13     C        3d2+      27
   14     C        1s        28 +   29
   15     C        1s        30 +   31
   16     C        1s        32 +   33
   17     C        1s        34 +   35
   18     C        1s        36 +   37
   19     C        2px       38 -   39
   20     C        2pz       42 +   43
   21     C        2px       44 -   45
   22     C        2pz       48 +   49
   23     C        2px       50 -   51
   24     C        2pz       54 +   55
   25     C        2px       56 -   57
   26     C        2pz       60 +   61
   27     C        3d0       66 +   67
   28     C        3d1+      68 -   69
   29     C        3d2+      70 +   71
   30     C        3d0       76 +   77
   31     C        3d1+      78 -   79
   32     C        3d2+      80 +   81
   33     C        1s        82 +   83
   34     C        1s        84 +   85
   35     C        1s        86 +   87
   36     C        1s        88 +   89
   37     C        1s        90 +   91
   38     C        2px       92 -   93
   39     C        2pz       96 +   97
   40     C        2px       98 -   99
   41     C        2pz      102 +  103
   42     C        2px      104 -  105
   43     C        2pz      108 +  109
   44     C        2px      110 -  111
   45     C        2pz      114 +  115
   46     C        3d0      120 +  121
   47     C        3d1+     122 -  123
   48     C        3d2+     124 +  125
   49     C        3d0      130 +  131
   50     C        3d1+     132 -  133
   51     C        3d2+     134 +  135
   52     C        1s       136
   53     C        1s       137
   54     C        1s       138
   55     C        1s       139
   56     C        1s       140
   57     C        2pz      143
   58     C        2pz      146
   59     C        2pz      149
   60     C        2pz      152
   61     C        3d0      155
   62     C        3d2+     157
   63     C        3d0      160
   64     C        3d2+     162
   65     N        1s       163
   66     N        1s       164
   67     N        1s       165
   68     N        1s       166
   69     N        1s       167
   70     N        2pz      170
   71     N        2pz      173
   72     N        2pz      176
   73     N        2pz      179
   74     N        3d0      182
   75     N        3d2+     184
   76     N        3d0      187
   77     N        3d2+     189
   78     O        1s       190 +  191
   79     O        1s       192 +  193
   80     O        1s       194 +  195
   81     O        1s       196 +  197
   82     O        1s       198 +  199
   83     O        2px      200 -  201
   84     O        2pz      204 +  205
   85     O        2px      206 -  207
   86     O        2pz      210 +  211
   87     O        2px      212 -  213
   88     O        2pz      216 +  217
   89     O        2px      218 -  219
   90     O        2pz      222 +  223
   91     O        3d0      228 +  229
   92     O        3d1+     230 -  231
   93     O        3d2+     232 +  233
   94     O        3d0      238 +  239
   95     O        3d1+     240 -  241
   96     O        3d2+     242 +  243
   97     H        1s       244 +  245
   98     H        1s       246 +  247
   99     H        1s       248 +  249
  100     H        2px      250 -  251
  101     H        2pz      254 +  255
  102     H        2px      256 -  257
  103     H        2pz      260 +  261
  104     H        1s       262 +  263
  105     H        1s       264 +  265
  106     H        1s       266 +  267
  107     H        2px      268 -  269
  108     H        2pz      272 +  273
  109     H        2px      274 -  275
  110     H        2pz      278 +  279
  111     H        1s       280
  112     H        1s       281
  113     H        1s       282
  114     H        2pz      285
  115     H        2pz      288


  Symmetry  B1 ( 2)

  116     C        2px        6
  117     C        2px        9
  118     C        2px       12
  119     C        2px       15
  120     C        3d1+      21
  121     C        3d1+      26
  122     C        1s        28 -   29
  123     C        1s        30 -   31
  124     C        1s        32 -   33
  125     C        1s        34 -   35
  126     C        1s        36 -   37
  127     C        2px       38 +   39
  128     C        2pz       42 -   43
  129     C        2px       44 +   45
  130     C        2pz       48 -   49
  131     C        2px       50 +   51
  132     C        2pz       54 -   55
  133     C        2px       56 +   57
  134     C        2pz       60 -   61
  135     C        3d0       66 -   67
  136     C        3d1+      68 +   69
  137     C        3d2+      70 -   71
  138     C        3d0       76 -   77
  139     C        3d1+      78 +   79
  140     C        3d2+      80 -   81
  141     C        1s        82 -   83
  142     C        1s        84 -   85
  143     C        1s        86 -   87
  144     C        1s        88 -   89
  145     C        1s        90 -   91
  146     C        2px       92 +   93
  147     C        2pz       96 -   97
  148     C        2px       98 +   99
  149     C        2pz      102 -  103
  150     C        2px      104 +  105
  151     C        2pz      108 -  109
  152     C        2px      110 +  111
  153     C        2pz      114 -  115
  154     C        3d0      120 -  121
  155     C        3d1+     122 +  123
  156     C        3d2+     124 -  125
  157     C        3d0      130 -  131
  158     C        3d1+     132 +  133
  159     C        3d2+     134 -  135
  160     C        2px      141
  161     C        2px      144
  162     C        2px      147
  163     C        2px      150
  164     C        3d1+     156
  165     C        3d1+     161
  166     N        2px      168
  167     N        2px      171
  168     N        2px      174
  169     N        2px      177
  170     N        3d1+     183
  171     N        3d1+     188
  172     O        1s       190 -  191
  173     O        1s       192 -  193
  174     O        1s       194 -  195
  175     O        1s       196 -  197
  176     O        1s       198 -  199
  177     O        2px      200 +  201
  178     O        2pz      204 -  205
  179     O        2px      206 +  207
  180     O        2pz      210 -  211
  181     O        2px      212 +  213
  182     O        2pz      216 -  217
  183     O        2px      218 +  219
  184     O        2pz      222 -  223
  185     O        3d0      228 -  229
  186     O        3d1+     230 +  231
  187     O        3d2+     232 -  233
  188     O        3d0      238 -  239
  189     O        3d1+     240 +  241
  190     O        3d2+     242 -  243
  191     H        1s       244 -  245
  192     H        1s       246 -  247
  193     H        1s       248 -  249
  194     H        2px      250 +  251
  195     H        2pz      254 -  255
  196     H        2px      256 +  257
  197     H        2pz      260 -  261
  198     H        1s       262 -  263
  199     H        1s       264 -  265
  200     H        1s       266 -  267
  201     H        2px      268 +  269
  202     H        2pz      272 -  273
  203     H        2px      274 +  275
  204     H        2pz      278 -  279
  205     H        2px      283
  206     H        2px      286


  Symmetry  B2 ( 3)

  207     C        2py        7
  208     C        2py       10
  209     C        2py       13
  210     C        2py       16
  211     C        3d1-      19
  212     C        3d1-      24
  213     C        2py       40 +   41
  214     C        2py       46 +   47
  215     C        2py       52 +   53
  216     C        2py       58 +   59
  217     C        3d2-      62 -   63
  218     C        3d1-      64 +   65
  219     C        3d2-      72 -   73
  220     C        3d1-      74 +   75
  221     C        2py       94 +   95
  222     C        2py      100 +  101
  223     C        2py      106 +  107
  224     C        2py      112 +  113
  225     C        3d2-     116 -  117
  226     C        3d1-     118 +  119
  227     C        3d2-     126 -  127
  228     C        3d1-     128 +  129
  229     C        2py      142
  230     C        2py      145
  231     C        2py      148
  232     C        2py      151
  233     C        3d1-     154
  234     C        3d1-     159
  235     N        2py      169
  236     N        2py      172
  237     N        2py      175
  238     N        2py      178
  239     N        3d1-     181
  240     N        3d1-     186
  241     O        2py      202 +  203
  242     O        2py      208 +  209
  243     O        2py      214 +  215
  244     O        2py      220 +  221
  245     O        3d2-     224 -  225
  246     O        3d1-     226 +  227
  247     O        3d2-     234 -  235
  248     O        3d1-     236 +  237
  249     H        2py      252 +  253
  250     H        2py      258 +  259
  251     H        2py      270 +  271
  252     H        2py      276 +  277
  253     H        2py      284
  254     H        2py      287


  Symmetry  A2 ( 4)

  255     C        3d2-      18
  256     C        3d2-      23
  257     C        2py       40 -   41
  258     C        2py       46 -   47
  259     C        2py       52 -   53
  260     C        2py       58 -   59
  261     C        3d2-      62 +   63
  262     C        3d1-      64 -   65
  263     C        3d2-      72 +   73
  264     C        3d1-      74 -   75
  265     C        2py       94 -   95
  266     C        2py      100 -  101
  267     C        2py      106 -  107
  268     C        2py      112 -  113
  269     C        3d2-     116 +  117
  270     C        3d1-     118 -  119
  271     C        3d2-     126 +  127
  272     C        3d1-     128 -  129
  273     C        3d2-     153
  274     C        3d2-     158
  275     N        3d2-     180
  276     N        3d2-     185
  277     O        2py      202 -  203
  278     O        2py      208 -  209
  279     O        2py      214 -  215
  280     O        2py      220 -  221
  281     O        3d2-     224 +  225
  282     O        3d1-     226 -  227
  283     O        3d2-     234 +  235
  284     O        3d1-     236 -  237
  285     H        2py      252 -  253
  286     H        2py      258 -  259
  287     H        2py      270 -  271
  288     H        2py      276 -  277

  Symmetries of electric field:  B1 (2)  B2 (3)  A1 (1)

  Symmetries of magnetic field:  B2 (3)  B1 (2)  A2 (4)


                     .---------------------------------------.
                     | Starting in Integral Section (HERMIT) |
                     `---------------------------------------'



 ***************************************************************************************
 ****************** Output from **INTEGRALS input processing (HERMIT) ******************
 ***************************************************************************************


 - Using defaults, no **INTEGRALS input found

 Default print level:        1

 Calculation of one-electron Hamiltonian integrals.

 Center of mass  (bohr):      0.000000000000      0.000000000000     -0.383938108481
 Operator center (bohr):      0.000000000000      0.000000000000      0.000000000000
 Gauge origin    (bohr):      0.000000000000      0.000000000000      0.000000000000
 Dipole origin   (bohr):      0.000000000000      0.000000000000      0.000000000000


     ************************************************************************
     ************************** Output from HERINT **************************
     ************************************************************************



                      Nuclear contribution to dipole moments
                      --------------------------------------

                 au               Debye          C m (/(10**-30)

      z    -32.41191504       -82.38286538      -274.79965949


  Time used in GABGEN     is       0.12 seconds
  Total CPU  time used in HERMIT:   0.41 seconds
  Total wall time used in HERMIT:   0.40 seconds


                        .----------------------------------.
                        | End of Integral Section (HERMIT) |
                        `----------------------------------'



                   .--------------------------------------------.
                   | Starting in Wave Function Section (SIRIUS) |
                   `--------------------------------------------'


 *** Output from Huckel module :

     Using EWMO model:          F
     Using EHT  model:          T
     Number of Huckel orbitals each symmetry:   24   17    6    3

 Huckel EHT eigenvalues for symmetry :  1
          -20.695822     -15.706036     -11.414993     -11.394585     -11.376746
          -11.362597      -1.748744      -1.555382      -1.196259      -0.941364
           -0.817059      -0.782210      -0.643577      -0.589224      -0.493397
           -0.429144      -0.328230      -0.246947      -0.225806      -0.213738
           -0.205823      -0.178738      -0.166343      -0.160473

 Huckel EHT eigenvalues for symmetry :  2
          -20.700625     -11.396474     -11.377857      -1.399983      -1.203200
           -0.879843      -0.646405      -0.569964      -0.526471      -0.479328
           -0.414891      -0.271537      -0.213209      -0.202807      -0.176234
           -0.165379      -0.163255

 Huckel EHT eigenvalues for symmetry :  3
           -0.800032      -0.672072      -0.465792      -0.384453      -0.281766
           -0.236539

 Huckel EHT eigenvalues for symmetry :  4
           -0.592875      -0.460139      -0.288832

 **********************************************************************
 *SIRIUS* a direct, restricted step, second order MCSCF program       *
 **********************************************************************

 
     Date and time (Linux)  : Tue Jul  9 10:29:26 2019
     Host name              : Lab2-333-NPs                            

 Title lines from ".mol" input file:
      nitrobenzene                                                           
      Generated by the Dalton Input File Plugin for Avogadro                 

 Print level on unit LUPRI =   2 is   0
 Print level on unit LUW4  =   2 is   5

@    MC-SCF optimization.

@    Multi-configurational response calculation.
@              Type: complete active space calculation (CAS).

@    This is a combination run starting with
@              a restricted, closed shell Hartree-Fock calculation
@              an MP2 calculation

 Fock matrices are calculated directly without use of integrals on disk.

 Initial molecular orbitals are obtained according to
 ".MOSTART EHT   " input option

     Wave function specification
     ============================
@    Wave function type        --- MC-SCF ---
@    Number of closed shell electrons          58
@    Number of electrons in active shells      10
@    Total charge of the molecule              -4

@    Spin multiplicity and 2 M_S                1         0
@    Total number of symmetries                 4 (point group: C2v)
@    Reference state symmetry                   1 (irrep name : A1 )

     Orbital specifications
     ======================
@    Abelian symmetry species          All |    1    2    3    4
@                                          |  A1   B1   B2   A2 
                                       --- |  ---  ---  ---  ---
@    Inactive orbitals                  29 |   16   11    2    0
@    Active orbitals                     5 |    1    1    1    2
@    Secondary orbitals                254 |   98   79   45   32
@    Total number of orbitals          288 |  115   91   48   34
@    Number of basis functions         288 |  115   91   48   34

      ** Automatic occupation of RHF orbitals **

      -- Initial occupation of symmetries is determined from extended Huckel guess.           
      -- Initial occupation of symmetries is :
@    Occupied SCF orbitals              32 |   16   11    3    2

     Optimization information
     ========================
@    Number of determinants                   1
@    Number of orbital rotations           2842
     ------------------------------------------
@    Total number of variables             2843

     Maximum number of macro iterations      25
     Maximum number of micro iterations     600
     Threshold for MCSCF gradient      1.00D-05
     Number of initial trial vectors          1
     Number of initial CI iterations          3
     Number of simultaneous trial vectors     1

@    This calculation converges to the lowest state for the specified symmetry and spin species.

     Maximum number of NEO/NR iterations  24

    INFORMATION: Switched to "new" integral transformation (from 1988 ;-) )
    because more than 255 basis functions.


 ***********************************************
 ***** DIIS acceleration of SCF iterations *****
 ***********************************************

 C1-DIIS algorithm; max error vectors =    8

 Automatic occupation of symmetries with  64 electrons.

 Iter     Total energy    Error norm  Delta(E)    SCF occupation
 -----------------------------------------------------------------------------
   1  Screening settings (-IFTHRS, JTDIIS, DIFDEN, times)   -8    1    T  2.74D+01  2.74D+01
@  1  -432.255033762       6.47D+00  -4.32D+02    16  11   3   2
      Virial theorem: -V/T =      1.998650
@    MULPOP   C       0.34; C   _1  0.26; C   _2  0.26; C   _1  0.24; C   _2  0.24; C       0.36; N       1.30; O   _1 -1.02; O   _2 -1.02; H   _1 -0.20; 
@             H   _2 -0.20; H   _1 -0.18; H   _2 -0.18; H      -0.19; 
   1  Level shift: doubly occupied orbital energies shifted by -2.00D-01
 -----------------------------------------------------------------------------
   2  Screening settings (-IFTHRS, JTDIIS, DIFDEN, times)   -8    2    T  2.74D+01  2.74D+01
@  2  -433.840473573       2.93D+00  -1.59D+00    16  11   3   2
      Virial theorem: -V/T =      2.001483
@    MULPOP   C       0.91; C   _1  0.35; C   _2  0.35; C   _1  0.35; C   _2  0.35; C       0.38; N       0.33; O   _1 -0.52; O   _2 -0.52; H   _1 -0.40; 
@             H   _2 -0.40; H   _1 -0.40; H   _2 -0.40; H      -0.40; 
   2  Level shift: doubly occupied orbital energies shifted by -1.00D-01
 -----------------------------------------------------------------------------
   3  Screening settings (-IFTHRS, JTDIIS, DIFDEN, times)   -8    3    T  2.70D+01  2.71D+01
@  3  -434.207204089       7.17D-01  -3.67D-01    16  11   3   2
      Virial theorem: -V/T =      2.000864
@    MULPOP   C       1.68; C   _1  0.24; C   _2  0.24; C   _1  0.44; C   _2  0.44; C       0.30; N       0.67; O   _1 -0.89; O   _2 -0.89; H   _1 -0.45; 
@             H   _2 -0.45; H   _1 -0.44; H   _2 -0.44; H      -0.44; 
   3  Level shift: doubly occupied orbital energies shifted by -2.50D-02
 -----------------------------------------------------------------------------
   4  Screening settings (-IFTHRS, JTDIIS, DIFDEN, times)   -8    4    T  2.70D+01  2.71D+01
@  4  -434.232828188       1.86D-01  -2.56D-02    16  11   3   2
      Virial theorem: -V/T =      2.002656
@    MULPOP   C       1.76; C   _1  0.19; C   _2  0.19; C   _1  0.51; C   _2  0.51; C       0.28; N       0.54; O   _1 -0.86; O   _2 -0.86; H   _1 -0.45; 
@             H   _2 -0.45; H   _1 -0.46; H   _2 -0.46; H      -0.46; 
   4  Level shift: doubly occupied orbital energies shifted by -1.25D-02
 -----------------------------------------------------------------------------
   5  Screening settings (-IFTHRS, JTDIIS, DIFDEN, times)  -10    5    F  2.80D+01  2.80D+01
@  5  -434.235503640       5.52D-02  -2.68D-03    16  11   3   2
      Virial theorem: -V/T =      2.002075
@    MULPOP   C       1.80; C   _1  0.17; C   _2  0.17; C   _1  0.51; C   _2  0.51; C       0.26; N       0.53; O   _1 -0.87; O   _2 -0.87; H   _1 -0.44; 
@             H   _2 -0.44; H   _1 -0.44; H   _2 -0.44; H      -0.44; 
 -----------------------------------------------------------------------------
   6  Screening settings (-IFTHRS, JTDIIS, DIFDEN, times)  -10    6    T  2.83D+01  2.83D+01
@  6  -434.235840724       1.54D-02  -3.37D-04    16  11   3   2
      Virial theorem: -V/T =      2.001997
@    MULPOP   C       1.81; C   _1  0.16; C   _2  0.16; C   _1  0.51; C   _2  0.51; C       0.26; N       0.51; O   _1 -0.86; O   _2 -0.86; H   _1 -0.44; 
@             H   _2 -0.44; H   _1 -0.44; H   _2 -0.44; H      -0.44; 
 -----------------------------------------------------------------------------
   7  Screening settings (-IFTHRS, JTDIIS, DIFDEN, times)  -13    7    F  2.80D+01  2.80D+01
@  7  -434.235873250       6.20D-03  -3.25D-05    16  11   3   2
      Virial theorem: -V/T =      2.002033
@    MULPOP   C       1.82; C   _1  0.16; C   _2  0.16; C   _1  0.51; C   _2  0.51; C       0.26; N       0.51; O   _1 -0.86; O   _2 -0.86; H   _1 -0.44; 
@             H   _2 -0.44; H   _1 -0.44; H   _2 -0.44; H      -0.44; 
 -----------------------------------------------------------------------------
   8  Screening settings (-IFTHRS, JTDIIS, DIFDEN, times)  -13    8    T  2.81D+01  2.83D+01
@  8  -434.235878261       2.11D-03  -5.01D-06    16  11   3   2
      Virial theorem: -V/T =      2.002021
@    MULPOP   C       1.82; C   _1  0.16; C   _2  0.16; C   _1  0.51; C   _2  0.51; C       0.26; N       0.51; O   _1 -0.86; O   _2 -0.86; H   _1 -0.44; 
@             H   _2 -0.44; H   _1 -0.44; H   _2 -0.44; H      -0.44; 
 -----------------------------------------------------------------------------
   9  Screening settings (-IFTHRS, JTDIIS, DIFDEN, times)  -13    9    T  2.77D+01  2.78D+01
@  9  -434.235878813       6.62D-04  -5.52D-07    16  11   3   2
      Virial theorem: -V/T =      2.002018
@    MULPOP   C       1.82; C   _1  0.16; C   _2  0.16; C   _1  0.51; C   _2  0.51; C       0.26; N       0.51; O   _1 -0.86; O   _2 -0.86; H   _1 -0.44; 
@             H   _2 -0.44; H   _1 -0.44; H   _2 -0.44; H      -0.44; 
 -----------------------------------------------------------------------------
  10  Screening settings (-IFTHRS, JTDIIS, DIFDEN, times)  -13   10    T  2.73D+01  2.73D+01
@ 10  -434.235878868       2.21D-04  -5.52D-08    16  11   3   2
      Virial theorem: -V/T =      2.002020
@    MULPOP   C       1.82; C   _1  0.16; C   _2  0.16; C   _1  0.51; C   _2  0.51; C       0.26; N       0.51; O   _1 -0.86; O   _2 -0.86; H   _1 -0.44; 
@             H   _2 -0.44; H   _1 -0.44; H   _2 -0.44; H      -0.44; 
 -----------------------------------------------------------------------------
  11  Screening settings (-IFTHRS, JTDIIS, DIFDEN, times)  -13   11    T  2.75D+01  2.75D+01
@ 11  -434.235878877       8.32D-05  -8.74D-09    16  11   3   2
      Virial theorem: -V/T =      2.002019
@    MULPOP   C       1.82; C   _1  0.16; C   _2  0.16; C   _1  0.51; C   _2  0.51; C       0.26; N       0.51; O   _1 -0.86; O   _2 -0.86; H   _1 -0.44; 
@             H   _2 -0.44; H   _1 -0.44; H   _2 -0.44; H      -0.44; 
 -----------------------------------------------------------------------------
  12  Screening settings (-IFTHRS, JTDIIS, DIFDEN, times)  -13   12    T  2.73D+01  2.73D+01
@ 12  -434.235878878       3.45D-05  -1.48D-09    16  11   3   2
      Virial theorem: -V/T =      2.002019
@    MULPOP   C       1.82; C   _1  0.16; C   _2  0.16; C   _1  0.51; C   _2  0.51; C       0.26; N       0.51; O   _1 -0.86; O   _2 -0.86; H   _1 -0.44; 
@             H   _2 -0.44; H   _1 -0.44; H   _2 -0.44; H      -0.44; 
 -----------------------------------------------------------------------------
  13  Screening settings (-IFTHRS, JTDIIS, DIFDEN, times)  -13   13    T  2.74D+01  2.74D+01
@ 13  -434.235878878       1.91D-05  -2.26D-10    16  11   3   2
      Virial theorem: -V/T =      2.002019
@    MULPOP   C       1.82; C   _1  0.16; C   _2  0.16; C   _1  0.51; C   _2  0.51; C       0.26; N       0.51; O   _1 -0.86; O   _2 -0.86; H   _1 -0.44; 
@             H   _2 -0.44; H   _1 -0.44; H   _2 -0.44; H      -0.44; 
 -----------------------------------------------------------------------------
  14  Screening settings (-IFTHRS, JTDIIS, DIFDEN, times)  -13   14    T  2.76D+01  2.76D+01
@ 14  -434.235878879       6.79D-06  -1.11D-10    16  11   3   2
      Virial theorem: -V/T =      2.002019
@    MULPOP   C       1.82; C   _1  0.16; C   _2  0.16; C   _1  0.51; C   _2  0.51; C       0.26; N       0.51; O   _1 -0.86; O   _2 -0.86; H   _1 -0.44; 
@             H   _2 -0.44; H   _1 -0.44; H   _2 -0.44; H      -0.44; 
 -----------------------------------------------------------------------------
  15  Screening settings (-IFTHRS, JTDIIS, DIFDEN, times)  -13   15    T  2.75D+01  2.76D+01
@ 15  -434.235878879       2.78D-06  -1.97D-11    16  11   3   2
      Virial theorem: -V/T =      2.002019
@    MULPOP   C       1.82; C   _1  0.16; C   _2  0.16; C   _1  0.51; C   _2  0.51; C       0.26; N       0.51; O   _1 -0.86; O   _2 -0.86; H   _1 -0.44; 
@             H   _2 -0.44; H   _1 -0.44; H   _2 -0.44; H      -0.44; 
 -----------------------------------------------------------------------------
  16  Screening settings (-IFTHRS, JTDIIS, DIFDEN, times)  -13   16    T  2.71D+01  2.71D+01
@ 16  -434.235878879       1.24D-06  -1.02D-12    16  11   3   2
      Virial theorem: -V/T =      2.002019
@    MULPOP   C       1.82; C   _1  0.16; C   _2  0.16; C   _1  0.51; C   _2  0.51; C       0.26; N       0.51; O   _1 -0.86; O   _2 -0.86; H   _1 -0.44; 
@             H   _2 -0.44; H   _1 -0.44; H   _2 -0.44; H      -0.44; 
 -----------------------------------------------------------------------------
  17  Screening settings (-IFTHRS, JTDIIS, DIFDEN, times)  -13   17    T  2.70D+01  2.70D+01
@ 17  -434.235878879       5.11D-07   8.98D-12    16  11   3   2

@ *** DIIS converged in  17 iterations !
@     Converged SCF energy, gradient:   -434.235878878539    5.11D-07
    - total time used in SIRFCK :              0.00 seconds

 --- Writing SIRIFC interface file

 CPU and wall time for SCF :     468.312     468.834


 ----- Output from SIRIUS MP2 module -----

 Reference: H.J.Aa.Jensen, P.Jorgensen, H.Agren, and J.Olsen,
            J. Chem. Phys. 88, 3834 (1988); 89, 5354 (1988)

 Checking that the closed shell orbitals are canonical Hartree-Fock orbitals

    Number of electrons  :   64
    Closed shell orbitals:   16   11    3    2

 Generating Fock matrix

 Hartree-Fock electronic energy:        -846.371294145595
 Hartree-Fock total      energy:        -434.235878878528

 Hartree-Fock orbital energies, symmetry 1 ( A1 ),   16 occupied SCF orbitals

       -20.61417110   -15.86237593   -11.32039765   -11.28448789   -11.28185976
       -11.27434416    -1.61153917    -1.20255598    -1.09505088    -0.96341509
        -0.83330472    -0.78372016    -0.71048858    -0.65256891    -0.55708606
        -0.49641636     0.02659951     0.04407949     0.06219486     0.10461676
         0.13068121     0.13486327     0.15097555     0.15649041     0.17308627
         0.18061396     0.21474324     0.25848594     0.28798556     0.30096523
         0.31139945     0.33788010     0.35052653     0.35377489     0.37057752
         0.39572440     0.41252907     0.43304954     0.45898079     0.48504380
         0.51436659     0.56050091     0.58194351     0.58612658     0.63095206
         0.64975899     0.65911976     0.67684533     0.72619945     0.73295792
         0.74224629     0.83773124     0.88360922     0.92957689     0.95721760
         0.96439348     1.00706859     1.05644369     1.07988812     1.13685051
         1.27746893     1.36129016     1.37715011     1.44938420     1.49539752
         1.51272628     1.55193621     1.57104584     1.58860050     1.61318998
         1.68097442     1.71922358     1.74659545     1.77088345     1.87036378
         1.93984620     1.95567175     2.00819683     2.01781840     2.12777003
         2.16524209     2.23655739     2.30797107     2.37217121     2.42011244
         2.44526882     2.55215502     2.70321931     2.77323347     2.83546800
         2.88285277     2.96588688     3.03790968     3.15088457     3.27207190
         3.43086484     3.75909375     3.97779664     4.08738152     4.24035423
        19.80216512    20.33471292    20.45350212    20.62025463    23.35312307
        23.38512907    23.42606565    23.81652216    23.91403555    24.12263867
        27.07942062    31.26176545    35.80296116    39.72248038    39.83640276

 Hartree-Fock orbital energies, symmetry 2 ( B1 ),   11 occupied SCF orbitals

       -20.61422309   -11.28452640   -11.27445023    -1.40525316    -1.05608805
        -0.86811721    -0.73116970    -0.65864204    -0.62664556    -0.53266848
        -0.49556160     0.03599233     0.05989216     0.13018828     0.13329649
         0.15342205     0.17409164     0.18365653     0.21428719     0.26199246
         0.28928528     0.31373522     0.33367262     0.36187549     0.36955513
         0.39420137     0.42201700     0.43798619     0.47010802     0.56760153
         0.57788798     0.59072816     0.64895205     0.67033436     0.67933706
         0.69986787     0.75544096     0.76175078     0.82905203     0.84332427
         0.86497854     0.92993003     1.01513770     1.14112266     1.20571476
         1.24972163     1.31577769     1.40540247     1.41801391     1.48592627
         1.57081824     1.59062152     1.61155216     1.63722502     1.70212435
         1.75930380     1.77081241     1.78854622     1.88896196     1.92944578
         1.99799098     2.08394132     2.22999909     2.26182019     2.33999489
         2.34660058     2.38741820     2.53067613     2.57483557     2.76962509
         2.89839946     2.93544586     3.09429566     3.27912819     3.32978112
         3.41249618     3.75311731     3.85580868     4.21665050    20.30117581
        20.48109871    22.90558387    23.34094579    23.38926434    23.93817256
        24.12074418    24.30825335    31.44434377    35.54894131    39.63722748
        40.03400853

 Hartree-Fock orbital energies, symmetry 3 ( B2 ),    3 occupied SCF orbitals

        -0.72001900    -0.53770566    -0.37843726     0.03458080     0.10677270
         0.12551405     0.13902261     0.18397534     0.19258157     0.24522809
         0.31949811     0.34209337     0.37366666     0.44421940     0.53321574
         0.58745116     0.64292081     0.71286211     0.78993633     0.83969682
         0.87158699     0.92146827     0.92631032     0.98545767     1.14496090
         1.28691472     1.29187874     1.47082324     1.47424869     1.61581928
         1.67347141     1.70782967     1.84383688     1.89844671     1.97598987
         2.08198394     2.17780509     2.29605085     2.53772614     2.67695238
         3.66933031     3.78184748    22.54328392    22.69079477    22.82759548
        23.02617935    30.55420632    39.42094193

 Hartree-Fock orbital energies, symmetry 4 ( A2 ),    2 occupied SCF orbitals

        -0.45668199    -0.36994494     0.08557737     0.13129987     0.18584652
         0.29771046     0.41313442     0.49048500     0.54759717     0.66056978
         0.73593754     0.89541577     0.90129794     0.94413588     1.03711742
         1.08949890     1.21293458     1.24315543     1.33469620     1.48755685
         1.67165853     1.68873666     1.86045484     2.00087239     2.11673830
         2.21192537     2.35443882     2.46969306     2.60547134     3.66517699
         4.00212840    22.69204549    22.85865589    39.49631745

    E(LUMO) :     0.02659951   (in symmetry 1)
  - E(HOMO) :    -0.36994494   (in symmetry 4)
  --------------------------
    gap     :     0.39654445

---> (Re)generating AOTWOINT


     ************************************************************************
     ************************** Output from HERINT **************************
     ************************************************************************


 Threshold for neglecting two-electron integrals:  1.00D-12
 HERMIT - Number of two-electron integrals written:   203489779 ( 23.5% )
 HERMIT - Megabytes written:                           3106.305

  Time used in TWOINT     is      37.59 seconds

 2-el. integral transformation level 5: Total CPU and WALL times (sec)     391.688     394.451

 MP2 move   0.994252 electrons to unoccupied HF orbitals


@   Hartree-Fock total energy   :          -434.2358788785
@   + MP2 contribution          :            -1.7260834344
@   = MP2 second order energy   :          -435.9619623129

 Natural orbital occupation numbers, symmetry 1 (irrep A1 )
 Sum =    32.00759245; RHF =    32.00000000; Difference =     0.00759245

         1.99929005     1.99907562     1.99876147     1.99875654     1.99875179
         1.99874781     1.98691347     1.98412472     1.97944295     1.97231707
         1.96893153     1.96827032     1.96537240     1.96215915     1.95511148
         1.94583895     0.04264919     0.03587687     0.02549561     0.02382135
         0.01919835     0.01857280     0.01733459     0.01646601     0.01378678
         0.01267631     0.01165949     0.00982803     0.00853730     0.00786410
         0.00742070     0.00668784     0.00561639     0.00453967     0.00307149
         0.00294636     0.00270177     0.00261726     0.00221577     0.00202176
         0.00184771     0.00167078     0.00161242     0.00131380     0.00121167
         0.00116249     0.00105960     0.00096309     0.00071593     0.00065228
         0.00061215     0.00053529     0.00049915     0.00046308     0.00043902
         0.00041642     0.00040416     0.00038624     0.00037639     0.00035069
         0.00034204     0.00032369     0.00031264     0.00029117     0.00026770
         0.00026068     0.00022463     0.00021676     0.00020400     0.00019575
         0.00018665     0.00018579     0.00017628     0.00017097     0.00016714
         0.00016168     0.00015559     0.00014976     0.00014048     0.00013324
         0.00012600     0.00012418     0.00012190     0.00011088     0.00010499
         0.00009379     0.00007786     0.00007142     0.00005818     0.00005481
         0.00005180     0.00003960     0.00003451     0.00002814     0.00002064
         0.00001754     0.00001447     0.00001258     0.00001143     0.00000935
         0.00000874     0.00000846     0.00000701     0.00000313     0.00000299
         0.00000201     0.00000105     0.00000056     0.00000036     0.00000018
         0.00000016     0.00000000    -0.00000010    -0.00000051    -0.00005577

 Natural orbital occupation numbers, symmetry 2 (irrep B1 )
 Sum =    21.95381566; RHF =    22.00000000; Difference =    -0.04618434

         1.99928994     1.99875721     1.99875088     1.98413947     1.98002660
         1.97273754     1.96258456     1.96054625     1.95481423     1.95428922
         1.94646816     0.03812132     0.02539835     0.02378137     0.01908997
         0.01660080     0.01594382     0.01521400     0.01125531     0.01052194
         0.00911282     0.00767940     0.00580779     0.00539408     0.00516025
         0.00398147     0.00312603     0.00273144     0.00239905     0.00212914
         0.00172252     0.00162337     0.00152097     0.00131891     0.00118629
         0.00102600     0.00097340     0.00069765     0.00064103     0.00056828
         0.00049083     0.00044037     0.00042298     0.00037287     0.00035375
         0.00033746     0.00030487     0.00029257     0.00026990     0.00025894
         0.00023872     0.00021141     0.00019814     0.00018774     0.00018264
         0.00017772     0.00017020     0.00016933     0.00016020     0.00015388
         0.00014374     0.00013380     0.00012922     0.00012576     0.00011881
         0.00011287     0.00009462     0.00008943     0.00006870     0.00005433
         0.00004576     0.00003694     0.00003057     0.00002896     0.00002323
         0.00001516     0.00001424     0.00001139     0.00001061     0.00000853
         0.00000470     0.00000358     0.00000179     0.00000124     0.00000059
         0.00000028     0.00000014    -0.00000003    -0.00000020    -0.00000067
        -0.00001775

 Natural orbital occupation numbers, symmetry 3 (irrep B2 )
 Sum =     6.07755902; RHF =     6.00000000; Difference =     0.07755902

         1.95053931     1.94432957     1.90911673     0.10149697     0.06752211
         0.02962133     0.01050098     0.01030915     0.00872329     0.00793454
         0.00617060     0.00527829     0.00447546     0.00388759     0.00342592
         0.00306668     0.00153528     0.00144250     0.00099275     0.00088768
         0.00086614     0.00066159     0.00060065     0.00049500     0.00047223
         0.00041876     0.00033448     0.00029013     0.00024920     0.00022967
         0.00019740     0.00019584     0.00018985     0.00017686     0.00015337
         0.00013026     0.00012126     0.00011109     0.00010092     0.00008326
         0.00008042     0.00006275     0.00003623     0.00002029     0.00001047
         0.00000779     0.00000513     0.00000124

 Natural orbital occupation numbers, symmetry 4 (irrep A2 )
 Sum =     3.96103287; RHF =     4.00000000; Difference =    -0.03896713

         1.91632986     1.90850449     0.06656439     0.01453167     0.01040286
         0.00930725     0.00791703     0.00570712     0.00512238     0.00406010
         0.00357680     0.00152737     0.00119959     0.00093581     0.00077864
         0.00072822     0.00067357     0.00056391     0.00040707     0.00037046
         0.00033916     0.00029678     0.00021641     0.00019696     0.00016454
         0.00013308     0.00011678     0.00010380     0.00009345     0.00006954
         0.00005016     0.00002065     0.00001756     0.00000539

 Time used for MP2 natural orbitals :     422.359 CPU seconds,     425.218 wall seconds.

 CPU and wall time for MP2 :     422.359     425.218


        SIRIUS MCSCF optimization (SIROPT)
 ================================================


 Fock matrix screening setting for SIRCNO: IFTHRS =    9

   --- OUTPUT FROM SIRCNO     Keyword = ONLYFD



 --- MACRO ITERATION  1 ---
 --------------------------

 2-el. integral transformation level 3: Total CPU and WALL times (sec)      91.578      91.616

 Fock matrix screening setting for this macro iteration: 10^( -9)

 Total MCSCF energy       :          -428.159177109281927  (MACRO    1)

 - Nuclear repulsion      :           412.135415267066946
 - Inactive energy        :          -840.564051282907258
 - Active energy          :             0.269458906558405

 Norm of total gradient   :             6.313400128186
 -    of CI gradient      :             0.000000000000
 -    of orbital gradient :             6.313400128186


 *** Label "NATOCC  " not found on SIRIUS.RST in SIRPOP

 WARNING, occupation of active orbitals not available
          population analysis aborted.
          Use ".TRACI" option.


 (SIRNEO) iteration (  1,  2)
 Micro iteration termination criterion met, EVAL(ISTATE+1) = -1.90D+00

   --- OUTPUT FROM SIRCNO     Keyword = FD+NO 



 --- MACRO ITERATION  2 ---
 --------------------------

 2-el. integral transformation level 3: Total CPU and WALL times (sec)      91.531      91.541

 Fock matrix screening setting for this macro iteration: 10^( -9)

 Total MCSCF energy       :          -429.593276264280291  (MACRO    2)

 - Nuclear repulsion      :           412.135415267066946
 - Inactive energy        :          -839.099535048318444
 - Active energy          :            -2.629156483028797

 Norm of total gradient   :             9.261608409952
 -    of CI gradient      :             0.000000000000
 -    of orbital gradient :             9.261608409952
      Virial theorem: -V/T =      1.978278
@    MULPOP   C       0.91; C   _1 -0.36; C   _2 -0.36; C   _1  0.54; C   _2  0.54; C       0.28; N      -2.43; O   _1 -0.88; O   _2 -0.88; H   _1 -0.00; 
@             H   _2 -0.00; H   _1 -0.43; H   _2 -0.43; H      -0.50; 

 (SIRNEO) iteration (  2,  2)
 Micro iteration termination criterion met, EVAL(ISTATE+1) = -1.12D+00

   --- OUTPUT FROM SIRCNO     Keyword = FD+NO 



 --- MACRO ITERATION  3 ---
 --------------------------

 2-el. integral transformation level 3: Total CPU and WALL times (sec)      91.516      91.569

 Fock matrix screening setting for this macro iteration: 10^( -9)

 Total MCSCF energy       :          -430.170813047422996  (MACRO    3)

 - Nuclear repulsion      :           412.135415267066946
 - Inactive energy        :          -838.932869154614195
 - Active energy          :            -3.373359159875736

 Norm of total gradient   :             3.255734600894
 -    of CI gradient      :             0.000000000000
 -    of orbital gradient :             3.255734600894
      Virial theorem: -V/T =      1.972305
@    MULPOP   C       2.12; C   _1 -1.53; C   _2 -1.53; C   _1  1.40; C   _2  1.40; C      -0.88; N      -3.02; O   _1 -0.37; O   _2 -0.37; H   _1  0.03; 
@             H   _2  0.03; H   _1 -0.36; H   _2 -0.36; H      -0.57; 

 (SIRNEO) iteration (  3,  2)
 Micro iteration termination criterion met, EVAL(ISTATE+1) = -3.11D-01

   --- OUTPUT FROM SIRCNO     Keyword = FD+NO 



 --- MACRO ITERATION  4 ---
 --------------------------

 2-el. integral transformation level 3: Total CPU and WALL times (sec)      92.016      92.072

 Fock matrix screening setting for this macro iteration: 10^( -9)

 Total MCSCF energy       :          -430.375054303681054  (MACRO    4)

 - Nuclear repulsion      :           412.135415267066946
 - Inactive energy        :          -838.662468269107308
 - Active energy          :            -3.848001301640689

 Norm of total gradient   :             2.647214057885
 -    of CI gradient      :             0.000000000000
 -    of orbital gradient :             2.647214057885
      Virial theorem: -V/T =      1.981797
@    MULPOP   C      -0.69; C   _1  0.31; C   _2  0.31; C   _1  2.28; C   _2  2.28; C      -1.04; N      -2.42; O   _1 -0.16; O   _2 -0.16; H   _1 -1.85; 
@             H   _2 -1.85; H   _1 -0.21; H   _2 -0.21; H      -0.59; 

 (SIRNEO) iteration (  4,  3)
 Micro iteration termination criterion met, EVAL(ISTATE+1) = -1.12D+00

   --- OUTPUT FROM SIRCNO     Keyword = FD+NO 



 --- MACRO ITERATION  5 ---
 --------------------------

 2-el. integral transformation level 3: Total CPU and WALL times (sec)      91.484      91.525

 Fock matrix screening setting for this macro iteration: 10^( -9)

 Total MCSCF energy       :          -430.877001864754277  (MACRO    5)

 - Nuclear repulsion      :           412.135415267066946
 - Inactive energy        :          -838.603879106744898
 - Active energy          :            -4.408538025076329

 Norm of total gradient   :             1.514625083785
 -    of CI gradient      :             0.000000000000
 -    of orbital gradient :             1.514625083785
      Virial theorem: -V/T =      1.985841
@    MULPOP   C       2.18; C   _1 -0.62; C   _2 -0.62; C   _1  1.32; C   _2  1.32; C      -1.15; N      -0.37; O   _1 -0.75; O   _2 -0.75; H   _1 -1.56; 
@             H   _2 -1.56; H   _1 -0.22; H   _2 -0.22; H      -0.97; 

 (SIRNEO) iteration (  5,  3)
 Micro iteration termination criterion met, EVAL(ISTATE+1) = -9.59D-01

   --- OUTPUT FROM SIRCNO     Keyword = FD+NO 



 --- MACRO ITERATION  6 ---
 --------------------------

 2-el. integral transformation level 3: Total CPU and WALL times (sec)      91.531      91.576

 Fock matrix screening setting for this macro iteration: 10^( -9)

 Total MCSCF energy       :          -431.507800278421996  (MACRO    6)

 - Nuclear repulsion      :           412.135415267066946
 - Inactive energy        :          -839.250096294180821
 - Active energy          :            -4.393119251308143

 Norm of total gradient   :             1.204254696634
 -    of CI gradient      :             0.000000000000
 -    of orbital gradient :             1.204254696634
      Virial theorem: -V/T =      1.988277
@    MULPOP   C       1.59; C   _1 -3.23; C   _2 -3.23; C   _1  1.82; C   _2  1.82; C       2.58; N       0.60; O   _1 -1.23; O   _2 -1.23; H   _1 -0.71; 
@             H   _2 -0.71; H   _1 -0.27; H   _2 -0.27; H      -1.53; 

 (SIRNEO) iteration (  6,  2)
 Micro iteration termination criterion met, EVAL(ISTATE+1) = -5.08D-01

   --- OUTPUT FROM SIRCNO     Keyword = FD+NO 



 --- MACRO ITERATION  7 ---
 --------------------------

 2-el. integral transformation level 3: Total CPU and WALL times (sec)      91.453      91.488

 Fock matrix screening setting for this macro iteration: 10^( -9)

 Total MCSCF energy       :          -431.618543542258010  (MACRO    7)

 - Nuclear repulsion      :           412.135415267066946
 - Inactive energy        :          -839.089318313965578
 - Active energy          :            -4.664640495359381

 Norm of total gradient   :             4.324501421328
 -    of CI gradient      :             0.000000000000
 -    of orbital gradient :             4.324501421328
      Virial theorem: -V/T =      1.991353
@    MULPOP   C       8.55; C   _1  3.03; C   _2  3.03; C   _1 -5.16; C   _2 -5.16; C      -4.51; N       0.41; O   _1 -1.12; O   _2 -1.12; H   _1 -0.03; 
@             H   _2 -0.03; H   _1 -0.30; H   _2 -0.30; H      -1.28; 

 (SIRNEO) iteration (  7,  3)
 Micro iteration termination criterion met, EVAL(ISTATE+1) = -1.07D+00

   --- OUTPUT FROM SIRCNO     Keyword = FD+NO 



 --- MACRO ITERATION  8 ---
 --------------------------

 2-el. integral transformation level 3: Total CPU and WALL times (sec)      91.781      91.867

 Fock matrix screening setting for this macro iteration: 10^( -9)

 Total MCSCF energy       :          -432.510892652074745  (MACRO    8)

 - Nuclear repulsion      :           412.135415267066946
 - Inactive energy        :          -839.917110945995773
 - Active energy          :            -4.729196973145910

 Norm of total gradient   :             1.412293437008
 -    of CI gradient      :             0.000000000000
 -    of orbital gradient :             1.412293437008
      Virial theorem: -V/T =      1.994217
@    MULPOP   C      16.58; C   _1 10.01; C   _2 10.01; C   _1-10.73; C   _2-10.73; C     -15.01; N      -0.22; O   _1 -1.18; O   _2 -1.18; H   _1 -0.04; 
@             H   _2 -0.04; H   _1 -0.19; H   _2 -0.19; H      -1.08; 

 (SIRNEO) iteration (  8,  2)
 Micro iteration termination criterion met, EVAL(ISTATE+1) = -3.62D-01

   --- OUTPUT FROM SIRCNO     Keyword = FD+NO 



 --- MACRO ITERATION  9 ---
 --------------------------

 2-el. integral transformation level 3: Total CPU and WALL times (sec)      91.641      91.691

 Fock matrix screening setting for this macro iteration: 10^( -9)

 Total MCSCF energy       :          -432.562245929779749  (MACRO    9)

 - Nuclear repulsion      :           412.135415267066946
 - Inactive energy        :          -839.898856681732696
 - Active energy          :            -4.798804515113996

 Norm of total gradient   :             2.295842997660
 -    of CI gradient      :             0.000000000000
 -    of orbital gradient :             2.295842997660
      Virial theorem: -V/T =      1.998033
@    MULPOP   C      17.43; C   _1  8.66; C   _2  8.66; C   _1-11.92; C   _2-11.92; C     -13.69; N      -0.21; O   _1 -0.89; O   _2 -0.89; H   _1 -0.67; 
@             H   _2 -0.67; H   _1 -0.37; H   _2 -0.37; H       2.83; 

 (SIRNEO) iteration (  9,  2)
 Micro iteration termination criterion met, EVAL(ISTATE+1) = -5.28D-02

   --- OUTPUT FROM SIRCNO     Keyword = FD+NO 



 --- MACRO ITERATION 10 ---
 --------------------------

 2-el. integral transformation level 3: Total CPU and WALL times (sec)      91.750      91.787

 Fock matrix screening setting for this macro iteration: 10^( -9)

 Total MCSCF energy       :          -432.710655323113770  (MACRO   10)

 - Nuclear repulsion      :           412.135415267066946
 - Inactive energy        :          -839.976730358600889
 - Active energy          :            -4.869340231579802

 Norm of total gradient   :             2.006800350925
 -    of CI gradient      :             0.000000000000
 -    of orbital gradient :             2.006800350925
      Virial theorem: -V/T =      1.997899
@    MULPOP   C      13.16; C   _1  7.86; C   _2  7.86; C   _1-15.09; C   _2-15.09; C       0.96; N      -0.44; O   _1 -0.74; O   _2 -0.74; H   _1 -0.37; 
@             H   _2 -0.37; H   _1 -3.32; H   _2 -3.32; H       5.66; 

 (SIRNEO) iteration ( 10,  3)
 Micro iteration termination criterion met, EVAL(ISTATE+1) = -3.47D-01

   --- OUTPUT FROM SIRCNO     Keyword = FD+NO 



 --- MACRO ITERATION 11 ---
 --------------------------

 2-el. integral transformation level 3: Total CPU and WALL times (sec)      91.734      91.811

 Fock matrix screening setting for this macro iteration: 10^( -9)

 Total MCSCF energy       :          -433.105662327965945  (MACRO   11)

 - Nuclear repulsion      :           412.135415267066946
 - Inactive energy        :          -839.447344962925854
 - Active energy          :            -5.793732632107019

 Norm of total gradient   :             2.853474284291
 -    of CI gradient      :             0.000000000000
 -    of orbital gradient :             2.853474284291
      Virial theorem: -V/T =      1.998386
@    MULPOP   C       8.67; C   _1  4.83; C   _2  4.83; C   _1-10.54; C   _2-10.54; C       7.08; N      -0.89; O   _1 -0.69; O   _2 -0.69; H   _1 -1.80; 
@             H   _2 -1.80; H   _1 -3.43; H   _2 -3.43; H       4.42; 

 (SIRNEO) iteration ( 11,  3)
 Micro iteration termination criterion met, EVAL(ISTATE+1) = -3.82D-01

   --- OUTPUT FROM SIRCNO     Keyword = FD+NO 



 --- MACRO ITERATION 12 ---
 --------------------------

 2-el. integral transformation level 3: Total CPU and WALL times (sec)      91.562      91.594

 Fock matrix screening setting for this macro iteration: 10^( -9)

 Total MCSCF energy       :          -433.295157786769437  (MACRO   12)

 - Nuclear repulsion      :           412.135415267066946
 - Inactive energy        :          -839.051286969553757
 - Active energy          :            -6.379286084282597

 Norm of total gradient   :             2.872593387772
 -    of CI gradient      :             0.000000000000
 -    of orbital gradient :             2.872593387772
      Virial theorem: -V/T =      1.998653
@    MULPOP   C       7.44; C   _1  1.67; C   _2  1.67; C   _1 -5.21; C   _2 -5.21; C       8.50; N      -0.54; O   _1 -0.77; O   _2 -0.77; H   _1 -3.30; 
@             H   _2 -3.30; H   _1 -3.34; H   _2 -3.34; H       2.50; 

 (SIRNEO) iteration ( 12,  3)
 Micro iteration termination criterion met, EVAL(ISTATE+1) = -3.01D-01

   --- OUTPUT FROM SIRCNO     Keyword = FD+NO 



 --- MACRO ITERATION 13 ---
 --------------------------

 2-el. integral transformation level 3: Total CPU and WALL times (sec)      91.094      91.225

 Fock matrix screening setting for this macro iteration: 10^( -9)

 Total MCSCF energy       :          -433.336364071606340  (MACRO   13)

 - Nuclear repulsion      :           412.135415267066946
 - Inactive energy        :          -838.787015483163486
 - Active energy          :            -6.684763855509802

 Norm of total gradient   :             4.134073397122
 -    of CI gradient      :             0.000000000000
 -    of orbital gradient :             4.134073397122
      Virial theorem: -V/T =      2.000402
@    MULPOP   C       6.53; C   _1 -2.22; C   _2 -2.22; C   _1  2.59; C   _2  2.59; C       4.79; N       0.94; O   _1 -1.12; O   _2 -1.12; H   _1 -4.43; 
@             H   _2 -4.43; H   _1 -3.00; H   _2 -3.00; H       0.08; 

 (SIRSTP) Energy difference;
 actual, predicted and ratio:  -0.041206284836903  -0.336323367789097    0.122520

 (SIRSTP) step is too large -- backstep

   --- OUTPUT FROM SIRCNO     Keyword = FD+NO 



 Optimization control: Step was too large, we backstep


 --- MACRO ITERATION 13 BACKSTEP NO.  1 ---

 2-el. integral transformation level 3: Total CPU and WALL times (sec)      91.422      91.431

 Fock matrix screening setting for this macro iteration: 10^( -9)

 Total MCSCF energy       :          -433.402548909309075  (MACRO   13)

 - Nuclear repulsion      :           412.135415267066946
 - Inactive energy        :          -840.360640920124524
 - Active energy          :            -5.177323256251523

 Norm of total gradient   :             1.879423335646
 -    of CI gradient      :             0.000000000000
 -    of orbital gradient :             1.879423335646
      Virial theorem: -V/T =      1.999819
@    MULPOP   C       6.50; C   _1 -1.26; C   _2 -1.26; C   _1  0.50; C   _2  0.50; C       6.51; N       0.40; O   _1 -0.99; O   _2 -0.99; H   _1 -4.19; 
@             H   _2 -4.19; H   _1 -3.12; H   _2 -3.12; H       0.74; 

 (SIRNEO) iteration ( 13,  3)
 Micro iteration termination criterion met, EVAL(ISTATE+1) = -1.51D-01

   --- OUTPUT FROM SIRCNO     Keyword = FD+NO 



 --- MACRO ITERATION 14 ---
 --------------------------

 2-el. integral transformation level 3: Total CPU and WALL times (sec)      91.250      91.252

 Fock matrix screening setting for this macro iteration: 10^( -9)

 Total MCSCF energy       :          -433.462098456374918  (MACRO   14)

 - Nuclear repulsion      :           412.135415267066946
 - Inactive energy        :          -839.301978146290367
 - Active energy          :            -6.295535577151509

 Norm of total gradient   :             2.517224260522
 -    of CI gradient      :             0.000000000000
 -    of orbital gradient :             2.517224260522
      Virial theorem: -V/T =      1.999623
@    MULPOP   C       7.02; C   _1 -2.54; C   _2 -2.54; C   _1  4.62; C   _2  4.62; C       4.04; N       0.37; O   _1 -0.98; O   _2 -0.98; H   _1 -4.46; 
@             H   _2 -4.46; H   _1 -4.50; H   _2 -4.50; H       0.29; 

 (SIRNEO) iteration ( 14,  3)
 Micro iteration termination criterion met, EVAL(ISTATE+1) = -6.35D-01

   --- OUTPUT FROM SIRCNO     Keyword = FD+NO 



 --- MACRO ITERATION 15 ---
 --------------------------

 2-el. integral transformation level 3: Total CPU and WALL times (sec)      91.500      91.666

 Fock matrix screening setting for this macro iteration: 10^( -9)

 Total MCSCF energy       :          -433.525319007110227  (MACRO   15)

 - Nuclear repulsion      :           412.135415267066946
 - Inactive energy        :          -840.490321926217121
 - Active energy          :            -5.170412347960038

 Norm of total gradient   :             1.169028345987
 -    of CI gradient      :             0.000000000000
 -    of orbital gradient :             1.169028345987
      Virial theorem: -V/T =      2.000054
[...]
  50 C   :3d1+  -0.0375  -0.0566   0.0286  -0.5056   0.4608   0.5283  -0.3431
  51 N   :2px   -0.0109  -0.0573  -0.0797   0.0188  -0.0160  -0.0460  -0.0806
  52 N   :2px    0.0132   0.0428   0.0479   0.0996  -0.2930  -1.1148  -0.9897
  54 N   :2px   -0.0472   0.0367   0.0613   1.4172  -0.5675  -8.9132  -2.1145
  55 N   :3d1+  -0.0047  -0.0316  -0.0329   0.0048  -0.0034  -0.0098   0.0004
  56 N   :3d1+   0.0261   0.0429  -0.0142  -0.0961   0.0661  -0.1788  -0.5232
  57 O   :1s     0.0001  -0.0008  -0.0008   0.1495   0.0017   0.0086   0.0098
  58 O   :1s     0.0154  -0.0010  -0.0132   0.0162  -0.0152   0.0054  -0.0329
  59 O   :1s     0.0155   0.0282  -0.0036  -0.0088  -0.0578  -0.3746  -0.5551
  61 O   :1s    -0.0090   0.0277   0.0264   0.4396  -0.2229  -5.7792  -4.6915
  62 O   :2px    0.0609   0.3428   0.2847  -0.0163   0.0152   0.0102   0.0391
  63 O   :2pz    0.0893   0.4317   0.2719   0.0079  -0.0012  -0.0263  -0.0203
  64 O   :2px    0.0095   0.0317   0.0125  -0.0050  -0.0246  -0.3490  -0.4493
  65 O   :2pz    0.0100   0.0340   0.0126  -0.0336   0.0389   0.1672   0.1480
  68 O   :2px    0.0036   0.0283   0.0293  -0.1008  -0.0209  -0.7701  -0.8994
  69 O   :2pz    0.0055   0.0438   0.0323   0.0076  -0.0567   1.0023   1.3348
  73 O   :3d0   -0.0075  -0.0212  -0.0090   0.0116  -0.0055   0.0149   0.0185
  74 O   :3d1+   0.0030   0.0067   0.0006  -0.0037   0.0029   0.0586   0.0580
  75 O   :3d2+   0.0037   0.0118   0.0074  -0.0050  -0.0057  -0.0412  -0.0614
  76 H   :1s    -0.3561  -0.0963   0.2927  -0.0001   0.0079   0.0091   0.0102
  77 H   :1s    -0.0250   0.0222   0.1632  -0.5179   0.8910  -2.0191   2.2096
  78 H   :1s     0.0224   0.0226  -0.0007  -3.6186   8.0295   3.1016  -3.9763
  79 H   :2px   -0.0109   0.0004   0.0059   0.0042  -0.0075  -0.0020  -0.0030
  81 H   :2px   -0.0235  -0.0033   0.0635  -0.0040  -0.0188  -0.3852   0.4974
  82 H   :2pz    0.0264  -0.0035  -0.0332   0.0954  -0.0662   0.1305  -0.0885
  83 H   :1s    -0.2994   0.2447  -0.2710   0.0019  -0.0008   0.0155  -0.0104
  84 H   :1s     0.0291   0.0636  -0.1271  -0.8953  -0.9001  -1.0586   0.4783
  85 H   :1s     0.0071   0.0440  -0.0242  -3.1233  -7.3577   1.5190  -0.7262
  86 H   :2px   -0.0107   0.0053  -0.0046   0.0043   0.0051   0.0037   0.0024
  88 H   :2px   -0.0150   0.0321  -0.0529  -0.1031  -0.0240  -0.2103   0.0226
  89 H   :2pz   -0.0110   0.0133  -0.0227  -0.0177  -0.0106  -0.1729   0.2551
  91 H   :2px   -0.0022  -0.0196   0.0124  -0.0088   0.1370   0.1474   0.0489

    Orbital        16       17       18       19       20       21       22
   1 C   :2px   -0.0362  -0.0211   0.0059  -0.0529   0.0093   0.0044   0.0490
   2 C   :2px    2.6495  -3.8173   3.4582   1.8972 -16.5079   2.2224  -1.5830
   4 C   :2px  -12.5566   6.7140 -14.9404  24.5720 150.0092 -29.2780  60.2190
   5 C   :3d1+  -0.0136   0.0122  -0.0081  -0.0079   0.0114  -0.0054  -0.0070
   6 C   :3d1+  -1.6847   0.6584  -0.4065  -1.1961   4.3876  -1.6238   1.7843
   7 C   :1s     0.0119   0.0158  -0.0250  -0.0072  -0.0054  -0.0099  -0.0540
   8 C   :1s     0.0083   0.0160  -0.0718  -0.0736  -0.0242  -0.0775  -0.3465
   9 C   :1s     0.3973  -2.7154   2.5045   2.0880   1.8883   2.1882   0.2368
  10 C   :1s     0.0035   0.0060  -0.0085  -0.0019  -0.0018  -0.0030  -0.0153
  11 C   :1s   -26.7286   6.0210   5.8700   7.3545   2.8595   3.5419  59.4747
  12 C   :2px    0.0078   0.1138  -0.0596   0.0380   0.0017   0.0392   0.0190
  13 C   :2pz    0.0216  -0.0512   0.0319   0.0004   0.0231   0.0228   0.0112
  14 C   :2px    2.7188  -2.2803   1.2271   1.4329  -7.2808   1.2441  -2.5183
  15 C   :2pz    1.7932  -0.3521   0.1558   1.2313 -14.5684   1.0665  -0.5770
  18 C   :2px   -9.7263  -5.0416  -2.9882  -1.4277  73.4995 -15.3038  25.8023
  19 C   :2pz   -0.6725   3.9608 -21.6269   3.3755 125.1874 -25.2008  30.4389
  20 C   :3d0    0.0021  -0.0008   0.0055   0.0045   0.0140  -0.0162  -0.0089
  21 C   :3d1+   0.0134  -0.0043  -0.0075   0.0116  -0.0064   0.0078   0.0087
  22 C   :3d2+   0.0043  -0.0127   0.0124   0.0019  -0.0049  -0.0092  -0.0408
  23 C   :3d0   -0.9319  -0.0701   0.0534  -1.0052   4.2769  -0.5444   0.8560
  24 C   :3d1+  -0.2220  -0.7712   1.2641  -0.1460  -3.0277   0.0332  -0.3050
  25 C   :3d2+   0.3335   0.0746   0.0635   0.5020  -2.5014   0.3607   0.2535
  26 C   :1s    -0.0186   0.0117   0.0116  -0.0212  -0.0030  -0.0442   0.0076
  27 C   :1s    -0.0057   0.0033   0.0049  -0.0559  -0.0168  -0.2402   0.0379
  28 C   :1s     0.6969  -2.5381  -0.5310   4.6016   0.4699   2.3573  -0.5905
  29 C   :1s    -0.0061   0.0047   0.0043  -0.0071  -0.0008  -0.0130   0.0024
  30 C   :1s    31.8963   7.8614 -15.3315 -20.3529  -1.5102  27.3169 -13.2754
  31 C   :2px   -0.0399   0.1006   0.0601  -0.0537   0.0053   0.0273   0.0031
  32 C   :2pz   -0.0363   0.0458   0.0031  -0.0261   0.0122   0.0050  -0.0533
  33 C   :2px   -1.6939  -2.8926   0.2498   1.8765   8.7283  -0.6825   0.8662
  34 C   :2pz    1.5603   1.2946  -0.2489   0.2872 -14.8978  -0.0235  -1.4964
  37 C   :2px   10.9208  -1.4689   1.9684   0.4496 -74.3058  22.2284 -19.6249
  38 C   :2pz   -1.9663  -4.6389 -12.7978  16.6995 127.3440 -30.9901  20.6233
  39 C   :3d0   -0.0064   0.0029  -0.0026   0.0021  -0.0171  -0.0132  -0.0198
  40 C   :3d1+   0.0083   0.0070  -0.0077   0.0005  -0.0108  -0.0091  -0.0129
  41 C   :3d2+   0.0000  -0.0145  -0.0052   0.0133   0.0075  -0.0284  -0.0129
  42 C   :3d0    0.7407   0.3159  -0.4350  -0.2430  -4.6854   0.1055  -0.3470
  43 C   :3d1+  -0.5465   0.7269   0.6886  -0.8923  -3.1556   0.2957   0.0432
  44 C   :3d2+  -0.1521  -0.1202   0.0912   0.0049   2.7202   0.4059   0.1587
  45 C   :2px   -0.0021  -0.0086  -0.0437   0.0077  -0.0236   0.0673  -0.0174
  46 C   :2px   -0.8699  -4.3633  -1.0087   3.3377  17.5273   0.2458   1.3277
  48 C   :2px   16.8748   6.2426  12.8353 -27.3363-147.3979  44.6568 -28.3935
  49 C   :3d1+   0.0018  -0.0217  -0.0031   0.0009   0.0160   0.0052  -0.0107
  50 C   :3d1+  -1.3165  -1.3130   0.0039   1.5979   6.2317   0.1148   0.6857
  51 N   :2px   -0.0383  -0.0321   0.0022  -0.0398  -0.0140  -0.0546   0.0572
  52 N   :2px   -0.1166  -0.1316  -0.5744  -0.1981  -0.0414   0.3242  -0.4230
  54 N   :2px   -1.4539  -2.0999  -6.0894  -9.9821   0.9222   4.3739  -4.9470
  56 N   :3d1+  -0.2001  -0.1917  -0.0611  -0.1136  -0.1731  -0.2145   0.2287
  58 O   :1s    -0.0338  -0.0253   0.0390  -0.0178   0.0011   0.0057  -0.0016
  59 O   :1s    -0.1469  -0.1142  -0.1414  -0.0673  -0.0991  -0.0311   0.0048
  61 O   :1s    -2.1293  -1.6432  -3.9988  -5.3700   1.8250   1.1587  -1.4636
  62 O   :2px    0.0213   0.0299  -0.0445  -0.0013   0.0213   0.0236  -0.0133
  63 O   :2pz   -0.0002   0.0084  -0.0499  -0.0143   0.0267   0.0135   0.0125
  64 O   :2px   -0.1423  -0.1001  -0.1743  -0.1284  -0.0151   0.0443  -0.0356
  65 O   :2pz    0.0551  -0.0062   0.1285   0.0887  -0.0737   0.0127   0.0336
  68 O   :2px    0.0374  -0.2410  -0.7796  -1.0670   0.5046  -2.0474   1.0386
  69 O   :2pz    0.5800   0.3406   0.3450   0.5171  -0.0850  -0.6710   0.8263
  72 O   :3d2+  -0.0005   0.0021  -0.0008   0.0014   0.0026   0.0106  -0.0070
  73 O   :3d0   -0.0035   0.0235   0.0016   0.0173   0.0169   0.0230  -0.0185
  74 O   :3d1+   0.0147   0.0099   0.0184   0.0212  -0.0127  -0.0123   0.0196
  75 O   :3d2+  -0.0073  -0.0127  -0.0238  -0.0174  -0.0026  -0.0259   0.0092
  76 H   :1s     0.0046  -0.0512   0.0431  -0.0441   0.0023  -0.0092  -0.1589
  77 H   :1s     0.9876  -2.9635   2.3775  -1.1820   0.2687  -1.1121  -5.3456
  78 H   :1s    -5.9386  -3.6483   4.0361  -1.8453   0.1709   0.3109   5.8213
  81 H   :2px    0.3540  -0.3194   0.3704   0.0232  -0.6219  -0.2079  -0.9494
  82 H   :2pz   -0.0267   0.3192   0.1555   0.4605  -1.2579   0.2938   0.4742
  83 H   :1s     0.0361  -0.0470  -0.0500   0.0176  -0.0076  -0.1016  -0.0268
  84 H   :1s    -0.3114  -2.6560  -0.9188   2.5510   0.0034  -3.7635  -0.5552
  85 H   :1s     7.3542  -1.9219  -3.9378   1.9648  -0.0440   3.0078  -1.8194
  87 H   :2pz    0.0007   0.0006   0.0103   0.0005  -0.0068  -0.0035   0.0130
  88 H   :2px   -0.1056  -0.3601   0.0078   0.2789   0.7598  -0.7310  -0.0538
  89 H   :2pz   -0.1662  -0.2321  -0.2375  -0.1582  -1.3144  -0.3645  -0.1344
  90 H   :2px   -0.0017   0.0001   0.0145   0.0030   0.0090  -0.0005   0.0064
  91 H   :2px   -0.6555  -0.1958  -0.2047   0.6543   1.4538   0.1539   0.2723

 Molecular orbitals for symmetry species 3  (B2 )
 ------------------------------------------------

    Orbital         1        2        3        4        5        6        7
   1 C   :2py    0.1084  -0.3557  -0.5391  -0.2007   0.0168  -0.1588  -0.2317
   2 C   :2py   -0.0245   0.0241  -0.0286  -0.0093  -0.0396  -0.2140  -0.0967
   4 C   :2py   -0.0329   0.0281  -0.0374  -0.0811   0.6416  -3.9978  -0.0154
   5 C   :3d1-   0.0138   0.0124   0.0013  -0.0343  -0.0056  -0.0008   0.0121
   6 C   :3d1-  -0.0754   0.0187   0.0323  -0.0690   0.2098   0.2252  -0.0393
   7 C   :2py    0.0365  -0.3134  -0.1917   0.2316   0.1051   0.0970  -0.0311
   8 C   :2py   -0.0382   0.0406   0.0206   0.0264   0.2143   0.1761  -0.0059
  10 C   :2py    0.0155  -0.0247  -0.0132   0.3004  -0.9649   1.3632   0.4837
  11 C   :3d2-   0.0039  -0.0155  -0.0206  -0.0069  -0.0010  -0.0164  -0.0122
  12 C   :3d1-   0.0008   0.0078  -0.0220  -0.0085  -0.0034  -0.0167  -0.0094
  13 C   :3d2-  -0.0262   0.0087   0.0139  -0.0499   0.1493   0.1630  -0.0590
  14 C   :3d1-   0.0216  -0.0080  -0.0115   0.0024  -0.1052  -0.0119  -0.0092
  15 C   :2py    0.0316  -0.3140   0.2548   0.0566   0.1059   0.0782   0.1240
  16 C   :2py    0.0204   0.0152  -0.0074   0.0276  -0.0322  -0.0576   0.0726
  18 C   :2py   -0.0093   0.0079   0.0232   0.0251   0.5299   0.7070   0.8811
  19 C   :3d2-   0.0016  -0.0142   0.0183  -0.0124  -0.0008  -0.0164  -0.0078
  20 C   :3d1-   0.0015  -0.0083  -0.0166   0.0215   0.0045   0.0077   0.0121
  21 C   :3d2-   0.0039  -0.0062  -0.0008   0.0201  -0.0552  -0.0850   0.0319
  22 C   :3d1-   0.0050  -0.0044  -0.0009   0.0069  -0.0359  -0.0039  -0.0713
  23 C   :2py    0.0363  -0.3172   0.4522  -0.2823   0.0056  -0.2825  -0.0453
  24 C   :2py   -0.0105   0.0325   0.0145  -0.1014   0.1656  -0.0437  -0.0528
  26 C   :2py    0.0123  -0.0172   0.0239  -0.3138  -1.1252  -0.5119  -2.5341
  27 C   :3d1-   0.0020  -0.0161   0.0133   0.0043   0.0044   0.0011   0.0128
  28 C   :3d1-  -0.0086   0.0035   0.0113  -0.0106   0.1000   0.0533   0.0251
  29 N   :2py    0.6157   0.0607  -0.0562  -0.5536  -0.0161   0.2376   0.3338
  30 N   :2py   -0.0486  -0.0153  -0.0180  -0.1282  -0.0535   0.0160   0.1294
  32 N   :2py    0.0454   0.0012   0.0016  -0.5592  -0.2228   1.6047  -0.0551
  33 N   :3d1-   0.0204   0.0131   0.0195   0.0234  -0.0002   0.0011  -0.0009
  34 N   :3d1-  -0.0439   0.0154   0.0293   0.0000   0.0857   0.0890  -0.0227
  35 O   :2py    0.4282   0.1121   0.1290   0.3449   0.0863  -0.0119  -0.2028
  36 O   :2py    0.0046   0.0044   0.0123   0.0695   0.0224   0.0092  -0.0592
  38 O   :2py    0.0028   0.0043   0.0202   0.3864  -0.0225  -0.5841  -0.0817
  39 O   :3d2-   0.0185   0.0036   0.0018  -0.0079   0.0030   0.0092   0.0039
  40 O   :3d1-  -0.0100  -0.0011   0.0004   0.0053  -0.0004  -0.0040  -0.0027
  41 O   :3d2-   0.0257   0.0028   0.0012   0.0086  -0.0127  -0.0210   0.0047
  44 H   :2py   -0.0164   0.0098   0.0084  -0.0358   0.1643   0.0879  -0.0942
  45 H   :2py    0.0007  -0.0075   0.0065   0.0024  -0.0040   0.0102   0.0032
  46 H   :2py   -0.0012   0.0001   0.0006   0.0130  -0.0040  -0.0902  -0.0081
  47 H   :2py    0.0009  -0.0075   0.0114  -0.0100  -0.0085  -0.0038  -0.0166
  48 H   :2py   -0.0047   0.0029   0.0069  -0.0077   0.0857  -0.0247   0.1385

    Orbital         8        9       10       11       12       13
   1 C   :2py    0.0846  -0.3785  -0.0722  -0.1033  -0.3860  -0.1322
   2 C   :2py    0.2621   0.0088   0.2086  -0.4728  -0.5545  -0.1959
   4 C   :2py  -10.7078   0.5239  -5.6389  -6.1916   5.4715  -6.2273
   5 C   :3d1-   0.0007   0.0003   0.0229   0.0059  -0.0117  -0.0023
   6 C   :3d1-  -0.0832  -0.0868  -0.6257  -0.2481   0.3698  -0.6771
   7 C   :2py   -0.0207   0.1572   0.0440   0.0581   0.3352   0.0674
   8 C   :2py   -0.1012  -0.1103  -0.2527  -0.0949   0.5380  -0.2178
  10 C   :2py    8.4557   1.3914   2.0460   2.1857  -3.9721   2.8939
  11 C   :3d2-  -0.0022  -0.0113  -0.0065  -0.0103  -0.0266   0.0076
  12 C   :3d1-   0.0061  -0.0139  -0.0032   0.0072   0.0137  -0.0147
  13 C   :3d2-  -0.1549  -0.1477  -0.3157   0.0218   0.2809  -0.0950
  14 C   :3d1-   0.1340   0.0207   0.1398   0.1080  -0.1709   0.2707
  15 C   :2py   -0.0871   0.1571   0.0895  -0.0819  -0.3194  -0.0322
  16 C   :2py    0.1735   0.1581   0.2438   0.0412  -0.5380   0.4551
  18 C   :2py   -6.5267  -4.0689  -0.5967  -0.5471   3.2712  -0.9198
  19 C   :3d2-   0.0006  -0.0086  -0.0101   0.0009   0.0181   0.0327
  20 C   :3d1-  -0.0070   0.0113   0.0041  -0.0016   0.0113   0.0180
  21 C   :3d2-   0.2716   0.0804   0.1284  -0.0399  -0.3069  -0.0494
  22 C   :3d1-   0.0926   0.1667   0.0800   0.0468  -0.1769   0.2035
  23 C   :2py    0.1859  -0.2993  -0.0982   0.1167   0.3164   0.0951
  24 C   :2py   -0.2151  -0.1310  -0.2666   0.0488   0.5229   0.4016
  26 C   :2py    5.9427   5.1453   0.8345   0.4643  -3.2891   1.3280
  27 C   :3d1-  -0.0056   0.0064  -0.0013  -0.0135  -0.0253   0.0330
  28 C   :3d1-  -0.2565  -0.1638  -0.1185   0.0379   0.3282  -0.1008
  29 N   :2py   -0.0301   0.2835   0.1200  -0.2245   0.2411   0.0390
  30 N   :2py   -0.0194   0.1656  -0.0060   0.0138  -0.0072   0.2296
  32 N   :2py    1.7572  -0.3425   3.4650   8.2287  -2.8931   4.1989
  33 N   :3d1-  -0.0037   0.0057   0.0115   0.0092   0.0087   0.0191
  34 N   :3d1-   0.0048   0.0324  -0.2454  -0.0513   0.0561  -0.1009
  35 O   :2py    0.0272  -0.1149  -0.2345   0.1103  -0.1092  -0.0266
  36 O   :2py    0.0080  -0.0343  -0.0814   0.1667  -0.0764  -0.0052
  38 O   :2py   -0.2348  -0.2126  -0.1925  -3.1504   0.9567  -1.0990
  41 O   :3d2-  -0.0098  -0.0058   0.0560  -0.0334   0.0153   0.0135
  42 O   :3d1-  -0.0060   0.0017  -0.0032   0.0243  -0.0129   0.0271
  43 H   :2py    0.0128   0.0030  -0.0029  -0.0023   0.0105   0.0057
  44 H   :2py   -0.3100  -0.0309  -0.1845   0.1450   0.5184  -0.4692
  45 H   :2py   -0.0090  -0.0048   0.0053  -0.0047  -0.0105   0.0090
  46 H   :2py    0.2719   0.2500   0.1068   0.0084  -0.4166  -0.7086
  47 H   :2py    0.0099   0.0020  -0.0016   0.0009   0.0098   0.0130
  48 H   :2py   -0.1803  -0.3404  -0.0528   0.2076   0.4737  -0.8207

 Molecular orbitals for symmetry species 4  (A2 )
 ------------------------------------------------

    Orbital         1        2        3        4        5        6        7
   1 C   :3d2-  -0.0043  -0.0343   0.0397   0.0024   0.0186  -0.0129   0.0226
   2 C   :3d2-  -0.0435  -0.0083  -0.0062  -0.1911   0.1368  -0.0126  -0.7285
   3 C   :2py    0.0243   0.4239  -0.3160   0.1174  -0.2678   0.0334  -0.1225
   4 C   :2py   -0.0298   0.0138  -0.1176  -0.0496   0.0202   0.1755  -0.9798
   6 C   :2py   -0.0088   0.0319  -1.4473  -0.8168   2.4019  -2.0993  -0.4569
   7 C   :3d2-  -0.0001   0.0031  -0.0012   0.0068   0.0005   0.0029  -0.0337
   8 C   :3d1-  -0.0002  -0.0190  -0.0217  -0.0012  -0.0099   0.0069   0.0271
   9 C   :3d2-  -0.0147   0.0032   0.0236  -0.0331  -0.0662  -0.0229   0.0032
  10 C   :3d1-  -0.0035  -0.0039  -0.0338  -0.0681  -0.0370  -0.1087  -0.4505
  11 C   :2py    0.0166   0.4105   0.3310   0.0716   0.2912  -0.0133  -0.0899
  12 C   :2py    0.0067   0.0119   0.1020   0.0195   0.0182  -0.0759  -0.7976
  14 C   :2py    0.0068   0.0295   1.4140  -0.7163  -2.5245   1.4647  -0.5128
  15 C   :3d2-   0.0001   0.0023   0.0013   0.0063   0.0005   0.0010  -0.0286
  16 C   :3d1-   0.0013   0.0199  -0.0199   0.0026  -0.0076  -0.0013  -0.0266
  17 C   :3d2-   0.0061   0.0071  -0.0293   0.0001   0.0718   0.0190   0.0625
  18 C   :3d1-   0.0011  -0.0003  -0.0169   0.0586  -0.0346  -0.1019   0.2674
  19 C   :3d2-  -0.0011  -0.0309  -0.0369   0.0054  -0.0159  -0.0028   0.0145
  20 C   :3d2-   0.0038   0.0025  -0.0110  -0.0901  -0.1034   0.0770  -0.4558
  21 N   :3d2-  -0.0576   0.0027  -0.0015  -0.0036   0.0046   0.0054  -0.0030
  22 N   :3d2-   0.0086   0.0003   0.0179   0.0265   0.0022   0.1523   0.0888
  23 O   :2py    0.6431  -0.0466   0.0598   0.0365  -0.0332  -0.1449  -0.0274
  24 O   :2py    0.0557  -0.0044   0.0258   0.0361  -0.0324  -0.1346   0.0422
  26 O   :2py    0.0717  -0.0069   0.0270  -0.0712   0.0739   1.5917  -0.1011
  27 O   :3d2-   0.0119  -0.0010   0.0019   0.0019  -0.0026  -0.0141  -0.0012
  29 O   :3d2-   0.0263  -0.0014   0.0044   0.0033   0.0019   0.0478   0.0034
  30 O   :3d1-  -0.0154   0.0001   0.0010  -0.0005   0.0014  -0.0333  -0.0152
  31 H   :2py    0.0013   0.0107  -0.0152  -0.0078   0.0018  -0.0011  -0.0099
  32 H   :2py   -0.0041   0.0011   0.0561   0.1187  -0.2357   0.0154   1.1640
  33 H   :2py    0.0006   0.0104   0.0153  -0.0087  -0.0023   0.0024  -0.0087
  34 H   :2py    0.0016   0.0020  -0.0471   0.1048   0.2340  -0.0485   0.9784

    Orbital         8        9       10       11       12
   1 C   :3d2-   0.0292  -0.0234  -0.0272  -0.0608  -0.0285
   2 C   :3d2-   0.2362   0.1469   0.9059   0.7903   2.8417
   3 C   :2py   -0.1791  -0.0531   0.3170   0.3206   0.1576
   4 C   :2py   -0.2938   0.3215   1.5681  -0.5553   2.4129
   6 C   :2py   -1.5838   0.5649   0.4284   0.1183   0.3290
   7 C   :3d2-  -0.0362   0.0062  -0.0137  -0.0106  -0.0188
   8 C   :3d1-   0.0011   0.0054   0.0307  -0.0253  -0.0325
   9 C   :3d2-   0.7931   0.3250   0.6429   1.1572  -0.6164
  10 C   :3d1-  -0.2136   0.7233  -1.0678  -0.0380   2.0504
  11 C   :2py    0.1979  -0.0129  -0.2396   0.3659   0.3368
  12 C   :2py    0.5589   0.0691  -1.8132  -0.2154   2.2384
  14 C   :2py    1.6525  -0.4680  -0.4505  -0.1101   0.0609
  15 C   :3d2-   0.0418   0.0018   0.0117  -0.0167  -0.0294
  16 C   :3d1-   0.0044  -0.0094   0.0308   0.0197   0.0064
  17 C   :3d2-  -0.7207   0.0839  -0.4131   1.1873   0.6859
  18 C   :3d1-  -0.3663  -0.1470  -1.0444   0.2437  -1.0232
  19 C   :3d2-  -0.0354  -0.0014   0.0302  -0.0640  -0.0757
  20 C   :3d2-  -0.0055  -0.5619  -1.0371   0.9846   2.4219
  21 N   :3d2-   0.0045  -0.0056   0.0156   0.0057   0.0245
  22 N   :3d2-  -0.0950  -0.2901   0.0819   0.0142   0.0372
  23 O   :2py   -0.0272  -0.0690   0.1229   0.0373   0.0914
  24 O   :2py   -0.0386  -0.1055   0.0263   0.0170   0.0361
  26 O   :2py    0.0436  -0.2947  -0.0026  -0.1568  -0.0254
  29 O   :3d2-  -0.0318  -0.0467   0.0084  -0.0271  -0.0282
  30 O   :3d1-  -0.0011  -0.0351   0.0774   0.0033   0.0684
  31 H   :2py   -0.0103  -0.0031   0.0139  -0.0098   0.0373
  32 H   :2py    1.4713  -0.2057   0.5828   1.2238  -1.4155
  33 H   :2py    0.0100  -0.0020  -0.0126  -0.0064   0.0295
  34 H   :2py   -1.6126   0.1235  -0.3256   1.3113  -0.1869

  Total CPU  time used in SIRIUS :   2 hours  8 minutes  7 seconds
  Total wall time used in SIRIUS :   2 hours  8 minutes 15 seconds

 
     Date and time (Linux)  : Tue Jul  9 12:37:41 2019
     Host name              : Lab2-333-NPs                            

 NOTE:    3 warnings have been issued.
 Check output, result, and error files for "WARNING".


                     .---------------------------------------.
                     | End of Wave Function Section (SIRIUS) |
                     `---------------------------------------'


@ - DALTON aborted because wave function not converged!

  --- SEVERE ERROR, PROGRAM WILL BE ABORTED ---
     Date and time (Linux)  : Tue Jul  9 12:37:41 2019
     Host name              : Lab2-333-NPs                            

 Reason: DALTON aborted because wave function not converged

  Total CPU  time used in DALTON:   2 hours  8 minutes  8 seconds
  Total wall time used in DALTON:   2 hours  8 minutes 16 seconds


 QTRACE dump of internal trace stack

 ========================
      level    module
 ========================
          3    SIRIUS      
          2    DALTON      
          1    DALTON main 
 ========================

