

     ************************************************************************
     *************** Dalton - An Electronic Structure Program ***************
     ************************************************************************

    This is output from DALTON release Dalton2018.1 (2019)
         ( Web site: http://daltonprogram.org )

   ----------------------------------------------------------------------------

    NOTE:
     
    Dalton is an experimental code for the evaluation of molecular
    properties using (MC)SCF, DFT, CI, and CC wave functions.
    The authors accept no responsibility for the performance of
    the code or for the correctness of the results.
     
    The code (in whole or part) is provided under a licence and
    is not to be reproduced for further distribution without
    the written permission of the authors or their representatives.
     
    See the home page "http://daltonprogram.org" for further information.
     
    If results obtained with this code are published,
    the appropriate citations would be both of:
     
       K. Aidas, C. Angeli, K. L. Bak, V. Bakken, R. Bast,
       L. Boman, O. Christiansen, R. Cimiraglia, S. Coriani,
       P. Dahle, E. K. Dalskov, U. Ekstroem,
       T. Enevoldsen, J. J. Eriksen, P. Ettenhuber, B. Fernandez,
       L. Ferrighi, H. Fliegl, L. Frediani, K. Hald, A. Halkier,
       C. Haettig, H. Heiberg, T. Helgaker, A. C. Hennum,
       H. Hettema, E. Hjertenaes, S. Hoest, I.-M. Hoeyvik,
       M. F. Iozzi, B. Jansik, H. J. Aa. Jensen, D. Jonsson,
       P. Joergensen, J. Kauczor, S. Kirpekar,
       T. Kjaergaard, W. Klopper, S. Knecht, R. Kobayashi, H. Koch,
       J. Kongsted, A. Krapp, K. Kristensen, A. Ligabue,
       O. B. Lutnaes, J. I. Melo, K. V. Mikkelsen, R. H. Myhre,
       C. Neiss, C. B. Nielsen, P. Norman, J. Olsen,
       J. M. H. Olsen, A. Osted, M. J. Packer, F. Pawlowski,
       T. B. Pedersen, P. F. Provasi, S. Reine, Z. Rinkevicius,
       T. A. Ruden, K. Ruud, V. Rybkin, P. Salek, C. C. M. Samson,
       A. Sanchez de Meras, T. Saue, S. P. A. Sauer,
       B. Schimmelpfennig, K. Sneskov, A. H. Steindal,
       K. O. Sylvester-Hvid, P. R. Taylor, A. M. Teale,
       E. I. Tellgren, D. P. Tew, A. J. Thorvaldsen, L. Thoegersen,
       O. Vahtras, M. A. Watson, D. J. D. Wilson, M. Ziolkowski
       and H. Agren,
       "The Dalton quantum chemistry program system",
       WIREs Comput. Mol. Sci. 2014, 4:269–284 (doi: 10.1002/wcms.1172)
     
    and
     
       Dalton, a molecular electronic structure program,
       Release Dalton2018.1 (2019), see http://daltonprogram.org
   ----------------------------------------------------------------------------

    Authors in alphabetical order (major contribution(s) in parenthesis):

  Kestutis Aidas,           Vilnius University,           Lithuania   (QM/MM)
  Celestino Angeli,         University of Ferrara,        Italy       (NEVPT2)
  Keld L. Bak,              UNI-C,                        Denmark     (AOSOPPA, non-adiabatic coupling, magnetic properties)
  Vebjoern Bakken,          University of Oslo,           Norway      (DALTON; geometry optimizer, symmetry detection)
  Radovan Bast,             UiT The Arctic U. of Norway,  Norway      (DALTON installation and execution frameworks)
  Pablo Baudin,             University of Valencia,       Spain       (Cholesky excitation energies)
  Linus Boman,              NTNU,                         Norway      (Cholesky decomposition and subsystems)
  Ove Christiansen,         Aarhus University,            Denmark     (CC module)
  Renzo Cimiraglia,         University of Ferrara,        Italy       (NEVPT2)
  Sonia Coriani,            Technical Univ. of Denmark,   Denmark     (CC module, MCD in RESPONS)
  Janusz Cukras,            University of Trieste,        Italy       (MChD in RESPONS)
  Paal Dahle,               University of Oslo,           Norway      (Parallelization)
  Erik K. Dalskov,          UNI-C,                        Denmark     (SOPPA)
  Thomas Enevoldsen,        Univ. of Southern Denmark,    Denmark     (SOPPA)
  Janus J. Eriksen,         Aarhus University,            Denmark     (Polarizable embedding model, TDA)
  Rasmus Faber,             University of Copenhagen,     Denmark     (Vib.avg. NMR with SOPPA, parallel AO-SOPPA)
  Tobias Fahleson,          KTH Stockholm,                Sweden      (Damped cubic response)
  Berta Fernandez,          U. of Santiago de Compostela, Spain       (doublet spin, ESR in RESPONS)
  Lara Ferrighi,            Aarhus University,            Denmark     (PCM Cubic response)
  Heike Fliegl,             University of Oslo,           Norway      (CCSD(R12))
  Luca Frediani,            UiT The Arctic U. of Norway,  Norway      (PCM)
  Bin Gao,                  UiT The Arctic U. of Norway,  Norway      (Gen1Int library)
  Christof Haettig,         Ruhr-University Bochum,       Germany     (CC module)
  Kasper Hald,              Aarhus University,            Denmark     (CC module)
  Asger Halkier,            Aarhus University,            Denmark     (CC module)
  Frederik Beyer Hansen,    University of Copenhagen,     Denmark     (Parallel AO-SOPPA)
  Erik D. Hedegaard,        Univ. of Southern Denmark,    Denmark     (Polarizable embedding model, QM/MM)
  Hanne Heiberg,            University of Oslo,           Norway      (geometry analysis, selected one-electron integrals)
  Trygve Helgaker,          University of Oslo,           Norway      (DALTON; ABACUS, ERI, DFT modules, London, and much more)
  Alf Christian Hennum,     University of Oslo,           Norway      (Parity violation)
  Hinne Hettema,            University of Auckland,       New Zealand (quadratic response in RESPONS; SIRIUS supersymmetry)
  Eirik Hjertenaes,         NTNU,                         Norway      (Cholesky decomposition)
  Pi A. B. Haase,           University of Copenhagen,     Denmark     (Triplet AO-SOPPA)
  Maria Francesca Iozzi,    University of Oslo,           Norway      (RPA)
  Christoph Jacob           TU Braunschweig               Germany     (Frozen density embedding model)
  Brano Jansik              Technical Univ. of Ostrava    Czech Rep.  (DFT cubic response)
  Hans Joergen Aa. Jensen,  Univ. of Southern Denmark,    Denmark     (DALTON; SIRIUS, RESPONS, ABACUS modules, London, and much more)
  Dan Jonsson,              UiT The Arctic U. of Norway,  Norway      (cubic response in RESPONS module)
  Poul Joergensen,          Aarhus University,            Denmark     (RESPONS, ABACUS, and CC modules)
  Maciej Kaminski,          University of Warsaw,         Poland      (CPPh in RESPONS)
  Joanna Kauczor,           Linkoeping University,        Sweden      (Complex polarization propagator (CPP) module)
  Sheela Kirpekar,          Univ. of Southern Denmark,    Denmark     (Mass-velocity & Darwin integrals)
  Wim Klopper,              KIT Karlsruhe,                Germany     (R12 code in CC, SIRIUS, and ABACUS modules)
  Stefan Knecht,            ETH Zurich,                   Switzerland (Parallel CI and MCSCF)
  Rika Kobayashi,           Australian National Univ.,    Australia   (DIIS in CC, London in MCSCF)
  Henrik Koch,              NTNU,                         Norway      (CC module, Cholesky decomposition)
  Jacob Kongsted,           Univ. of Southern Denmark,    Denmark     (Polarizable embedding model, QM/MM)
  Andrea Ligabue,           University of Modena,         Italy       (CTOCD, AOSOPPA)
  Nanna H. List             Univ. of Southern Denmark,    Denmark     (Polarizable embedding model)
  Ola B. Lutnaes,           University of Oslo,           Norway      (DFT Hessian)
  Juan I. Melo,             University of Buenos Aires,   Argentina   (LRESC, Relativistic Effects on NMR Shieldings)
  Kurt V. Mikkelsen,        University of Copenhagen,     Denmark     (MC-SCRF and QM/MM)
  Rolf H. Myhre,            NTNU,                         Norway      (Subsystems and CC3)
  Christian Neiss,          Univ. Erlangen-Nuernberg,     Germany     (CCSD(R12))
  Christian B. Nielsen,     University of Copenhagen,     Denmark     (QM/MM)
  Patrick Norman,           KTH Stockholm,                Sweden      (Cubic response and complex frequency response in RESPONS)
  Jeppe Olsen,              Aarhus University,            Denmark     (SIRIUS CI/density modules)
  Jogvan Magnus H. Olsen,   Univ. of Southern Denmark,    Denmark     (Polarizable embedding model, QM/MM)
  Anders Osted,             Copenhagen University,        Denmark     (QM/MM)
  Martin J. Packer,         University of Sheffield,      UK          (SOPPA)
  Filip Pawlowski,          Kazimierz Wielki University,  Poland      (CC3)
  Morten N. Pedersen,       Univ. of Southern Denmark,    Denmark     (Polarizable embedding model)
  Thomas B. Pedersen,       University of Oslo,           Norway      (Cholesky decomposition)
  Patricio F. Provasi,      University of Northeastern,   Argentina   (Analysis of coupling constants in localized orbitals)
  Zilvinas Rinkevicius,     KTH Stockholm,                Sweden      (open-shell DFT, ESR)
  Elias Rudberg,            KTH Stockholm,                Sweden      (DFT grid and basis info)
  Torgeir A. Ruden,         University of Oslo,           Norway      (Numerical derivatives in ABACUS)
  Kenneth Ruud,             UiT The Arctic U. of Norway,  Norway      (DALTON; ABACUS magnetic properties and much more)
  Pawel Salek,              KTH Stockholm,                Sweden      (DALTON; DFT code)
  Claire C. M. Samson       University of Karlsruhe       Germany     (Boys localization, r12 integrals in ERI)
  Alfredo Sanchez de Meras, University of Valencia,       Spain       (CC module, Cholesky decomposition)
  Trond Saue,               Paul Sabatier University,     France      (direct Fock matrix construction)
  Stephan P. A. Sauer,      University of Copenhagen,     Denmark     (SOPPA(CCSD), SOPPA prop., AOSOPPA, vibrational g-factors)
  Andre S. P. Gomes,        CNRS/Universite de Lille,     France      (Frozen density embedding model)
  Bernd Schimmelpfennig,    Forschungszentrum Karlsruhe,  Germany     (AMFI module)
  Kristian Sneskov,         Aarhus University,            Denmark     (Polarizable embedding model, QM/MM)
  Arnfinn H. Steindal,      UiT The Arctic U. of Norway,  Norway      (parallel QM/MM, Polarizable embedding model)
  Casper Steinmann,         Univ. of Southern Denmark,    Denmark     (QFIT, Polarizable embedding model)
  K. O. Sylvester-Hvid,     University of Copenhagen,     Denmark     (MC-SCRF)
  Peter R. Taylor,          VLSCI/Univ. of Melbourne,     Australia   (Symmetry handling ABACUS, integral transformation)
  Andrew M. Teale,          University of Nottingham,     England     (DFT-AC, DFT-D)
  David P. Tew,             University of Bristol,        England     (CCSD(R12))
  Olav Vahtras,             KTH Stockholm,                Sweden      (triplet response, spin-orbit, ESR, TDDFT, open-shell DFT)
  Lucas Visscher,           Vrije Universiteit Amsterdam, Netherlands (Frozen density embedding model)
  David J. Wilson,          La Trobe University,          Australia   (DFT Hessian and DFT magnetizabilities)
  Hans Agren,               KTH Stockholm,                Sweden      (SIRIUS module, RESPONS, MC-SCRF solvation model)
 --------------------------------------------------------------------------------

     Date and time (Linux)  : Thu Jul 11 14:22:49 2019
     Host name              : Lab2-333-NPs                            

 * Work memory size             :  1536000000 = 11.444 gigabytes.

 * Directories for basis set searches:
   1) /home/lab333/dalton/build_2018_atlas
   2) /home/lab333/dalton/build_2018_atlas/basis


Compilation information
-----------------------

 Who compiled             | lab333
 Host                     | Lab2-333-NPs
 System                   | Linux-4.4.0-43-Microsoft
 CMake generator          | Unix Makefiles
 Processor                | x86_64
 64-bit integers          | OFF
 MPI                      | OFF
 Fortran compiler         | /usr/bin/gfortran
 Fortran compiler version | GNU Fortran (Ubuntu 7.3.0-27ubuntu1~18.04) 7.3.0
 C compiler               | /usr/bin/gcc
 C compiler version       | gcc (Ubuntu 7.3.0-27ubuntu1~18.04) 7.3.0
 C++ compiler             | /usr/bin/g++
 C++ compiler version     | g++ (Ubuntu 7.3.0-27ubuntu1~18.04) 7.3.0
 BLAS                     | /usr/lib/x86_64-linux-gnu/libf77blas.so;/usr/lib/x
                          | 86_64-linux-gnu/libcblas.so;/usr/lib/x86_64-linux-
                          | gnu/libatlas.so
 LAPACK                   | /usr/lib/x86_64-linux-gnu/libatlas.so;/usr/lib/x86
                          | _64-linux-gnu/atlas/liblapack.so
 Static linking           | OFF
 Last Git revision        | da625bf48c74028e805616daee31bc5d76b3a20d
 Git branch               | (HEAD detached at Dalton2018.1)
 Configuration time       | 2019-01-18 10:20:51.437510


   Content of the .dal input file
 ----------------------------------

**DALTON INPUT
.RUN RESPONSE
.DIRECT
**WAVE FUNCTIONS
.HF
.MP2
.MCSCF
*CONFIGURATION INPUT
.SPIN MULTIPLICITY
1
.SYMMETRY
1
.INACTIVE ORBITALS
15 10 2 0
.CAS SPACE
1 1 1 2
.ELECTRONS
10
*ORBITAL INPUT
.MOSTART
.HUCKEL
*OPTIMIZATION
.DETERMINANTS
*CI VECTOR
.PLUS COMBINATIONS
**RESPONSE
*CUBIC
.DIPLEN
**END OF DALTON INPUT


   Content of the .mol file
 ----------------------------

BASIS
aug-cc-pCVTZ
 nitrobenzene
 Generated by the Dalton Input File Plugin for Avogadro
Atomtypes=4 Angstrom Generators=2 X Y
Charge=6.0 Atoms=4
C        0.0000000000            0.0000000000           -0.0265759623
C       -1.2190534920            0.0000000000           -0.6979856948
C       -1.2105095870            0.0000000000           -2.0897394457
C        0.0000000000            0.0000000000           -2.7841484631
Charge=7.0 Atoms=1
N        0.0000000000            0.0000000000            1.4549291696
Charge=8.0 Atoms=1
O       -1.0847503743            0.0000000000            2.0235779798
Charge=1.0 Atoms=3
H       -2.1410602955            0.0000000000           -0.1327964319
H       -2.1492827751            0.0000000000           -2.6311811056
H        0.0000000000            0.0000000000           -3.8683953478


       *******************************************************************
       *********** Output from DALTON general input processing ***********
       *******************************************************************

 --------------------------------------------------------------------------------
   Overall default print level:    0
   Print level for DALTON.STAT:    1

    AO-direct calculation (in sections where implemented)
    HERMIT 1- and 2-electron integral sections will be executed
    "Old" integral transformation used (limited to max 255 basis functions)
    Wave function sections will be executed (SIRIUS module)
    Dynamic molecular response properties section will be executed (RESPONSE module)
 --------------------------------------------------------------------------------


   ****************************************************************************
   *************** Output of molecule and basis set information ***************
   ****************************************************************************


    The two title cards from your ".mol" input:
    ------------------------------------------------------------------------
 1:  nitrobenzene                                                           
 2:  Generated by the Dalton Input File Plugin for Avogadro                 
    ------------------------------------------------------------------------

  Coordinates are entered in Angstrom and converted to atomic units.
          - Conversion factor : 1 bohr = 0.52917721 A

  Atomic type no.    1
  --------------------
  Nuclear charge:   6.00000
  Number of symmetry independent centers:    4
  Number of basis sets to read;    2
  Basis set file used for this atomic type with Z =   6 :
     "/home/lab333/dalton/build_2018_atlas/basis/aug-cc-pCVTZ"

  Atomic type no.    2
  --------------------
  Nuclear charge:   7.00000
  Number of symmetry independent centers:    1
  Number of basis sets to read;    2
  Basis set file used for this atomic type with Z =   7 :
     "/home/lab333/dalton/build_2018_atlas/basis/aug-cc-pCVTZ"

  Atomic type no.    3
  --------------------
  Nuclear charge:   8.00000
  Number of symmetry independent centers:    1
  Number of basis sets to read;    2
  Basis set file used for this atomic type with Z =   8 :
     "/home/lab333/dalton/build_2018_atlas/basis/aug-cc-pCVTZ"

  Atomic type no.    4
  --------------------
  Nuclear charge:   1.00000
  Number of symmetry independent centers:    3
  Number of basis sets to read;    2
  Basis set file used for this atomic type with Z =   1 :
     "/home/lab333/dalton/build_2018_atlas/basis/aug-cc-pCVTZ"


                         SYMGRP: Point group information
                         -------------------------------

@    Point group: C2v

@  * The irrep name for each symmetry:    1: A1     2: B1     3: B2     4: A2 

   * The point group was generated by:

      Reflection in the yz-plane
      Reflection in the xz-plane

   * Group multiplication table

        |  E   C2z  Oxz  Oyz
   -----+--------------------
     E  |  E   C2z  Oxz  Oyz
    C2z | C2z   E   Oyz  Oxz
    Oxz | Oxz  Oyz   E   C2z
    Oyz | Oyz  Oxz  C2z   E 

   * Character table

        |  E   C2z  Oxz  Oyz
   -----+--------------------
    A1  |   1    1    1    1
    B1  |   1   -1    1   -1
    B2  |   1   -1   -1    1
    A2  |   1    1   -1   -1

   * Direct product table

        | A1   B1   B2   A2 
   -----+--------------------
    A1  | A1   B1   B2   A2 
    B1  | B1   A1   A2   B2 
    B2  | B2   A2   A1   B1 
    A2  | A2   B2   B1   A1 


                                 Isotopic Masses
                                 ---------------

                           C          12.000000
                           C   _1     12.000000
                           C   _2     12.000000
                           C   _1     12.000000
                           C   _2     12.000000
                           C          12.000000
                           N          14.003074
                           O   _1     15.994915
                           O   _2     15.994915
                           H   _1      1.007825
                           H   _2      1.007825
                           H   _1      1.007825
                           H   _2      1.007825
                           H           1.007825

                       Total mass:   123.032029 amu
                       Natural abundance:  92.716 %

 Center-of-mass coordinates (a.u.):    0.000000    0.000000   -0.383938


  Atoms and basis sets
  --------------------

  Number of atom types :    4
  Total number of atoms:   14

  Basis set used is "aug-cc-pCVTZ" from the basis set library.

  label    atoms   charge   prim   cont     basis
  ----------------------------------------------------------------------
  C           6    6.0000    71    59      [13s8p4d2f|7s6p4d2f]                               
  N           1    7.0000    71    59      [13s8p4d2f|7s6p4d2f]                               
  O           2    8.0000    71    59      [13s8p4d2f|7s6p4d2f]                               
  H           5    1.0000    25    23      [6s3p2d|4s3p2d]                                    
  ----------------------------------------------------------------------
  total:     14   64.0000   764   646
  ----------------------------------------------------------------------
  Spherical harmonic basis used.

  Threshold for neglecting AO integrals:  1.00D-12


  Symmetry Coordinates
  --------------------

  Number of coordinates in each symmetry:    14   14    9    5


   Interatomic separations (in Angstrom):
   --------------------------------------

            C           C   _1      C   _2      C   _1      C   _2      C     
            ------      ------      ------      ------      ------      ------
 C     :    0.000000
 C   _1:    1.391719    0.000000
 C   _2:    1.391719    2.438107    0.000000
 C   _1:    2.392065    1.391780    2.799956    0.000000
 C   _2:    2.392065    2.799956    1.391780    2.421019    0.000000
 C     :    2.757573    2.416230    2.416230    1.395542    1.395542    0.000000
 N     :    1.481505    2.474093    2.474093    3.745665    3.745665    4.239078
 O   _1:    2.319443    2.724875    3.565729    4.115239    4.710371    4.928582
 O   _2:    2.319443    3.565729    2.724875    4.710371    4.115239    4.928582
 H   _1:    2.143694    1.081451    3.407316    2.166922    3.881063    3.407904
 H   _2:    2.143694    3.407316    1.081451    3.881063    2.166922    3.407904
 H   _1:    3.376890    2.145360    3.883675    1.083722    3.403140    2.154719
 H   _2:    3.376890    3.883675    2.145360    3.403140    1.083722    2.154719
 H     :    3.841819    3.396703    3.396703    2.151500    2.151500    1.084247

            N           O   _1      O   _2      H   _1      H   _2      H   _1
            ------      ------      ------      ------      ------      ------
 N     :    0.000000
 O   _1:    1.224763    0.000000
 O   _2:    1.224763    2.169501    0.000000
 H   _1:    2.665523    2.401196    3.880181    0.000000
 H   _2:    2.665523    3.880181    2.401196    4.282121    0.000000
 H   _1:    4.616894    4.774936    5.667958    2.498398    4.964773    0.000000
 H   _2:    4.616894    5.667958    4.774936    4.964773    2.498398    4.298566
 H     :    5.323325    5.990996    5.990996    4.305675    4.305675    2.479943

            H   _2      H     
            ------      ------
 H   _2:    0.000000
 H     :    2.479943    0.000000


  Max    interatomic separation is    5.9910 Angstrom (   11.3213 Bohr)
  between atoms   14 and    8, "H     " and "O   _1".

  Min HX interatomic separation is    1.0815 Angstrom (    2.0436 Bohr)

  Min YX interatomic separation is    1.2248 Angstrom (    2.3145 Bohr)


  Bond distances (Angstrom):
  --------------------------

                  atom 1     atom 2       distance
                  ------     ------       --------
  bond distance:  C   _1     C            1.391719
  bond distance:  C   _2     C            1.391719
  bond distance:  C   _1     C   _1       1.391780
  bond distance:  C   _2     C   _2       1.391780
  bond distance:  C          C   _1       1.395542
  bond distance:  C          C   _2       1.395542
  bond distance:  N          C            1.481505
  bond distance:  O   _1     N            1.224763
  bond distance:  O   _2     N            1.224763
  bond distance:  H   _1     C   _1       1.081451
  bond distance:  H   _2     C   _2       1.081451
  bond distance:  H   _1     C   _1       1.083722
  bond distance:  H   _2     C   _2       1.083722
  bond distance:  H          C            1.084247


  Bond angles (degrees):
  ----------------------

                  atom 1     atom 2     atom 3         angle
                  ------     ------     ------         -----
  bond angle:     C   _1     C          C   _2       122.311
  bond angle:     C   _1     C          N            118.844
  bond angle:     C   _2     C          N            118.844
  bond angle:     C          C   _1     C   _1       118.493
  bond angle:     C          C   _1     H   _1       119.647
  bond angle:     C   _1     C   _1     H   _1       121.860
  bond angle:     C          C   _2     C   _2       118.493
  bond angle:     C          C   _2     H   _2       119.647
  bond angle:     C   _2     C   _2     H   _2       121.860
  bond angle:     C   _1     C   _1     C            120.192
  bond angle:     C   _1     C   _1     H   _1       119.623
  bond angle:     C          C   _1     H   _1       120.185
  bond angle:     C   _2     C   _2     C            120.192
  bond angle:     C   _2     C   _2     H   _2       119.623
  bond angle:     C          C   _2     H   _2       120.185
  bond angle:     C   _1     C          C   _2       120.319
  bond angle:     C   _1     C          H            119.841
  bond angle:     C   _2     C          H            119.841
  bond angle:     C          N          O   _1       117.664
  bond angle:     C          N          O   _2       117.664
  bond angle:     O   _1     N          O   _2       124.671




 Principal moments of inertia (u*A**2) and principal axes
 --------------------------------------------------------

   IA     127.027245          0.000000    0.000000    1.000000
   IB     394.156158          1.000000    0.000000    0.000000
   IC     521.183403          0.000000    1.000000    0.000000


 Rotational constants
 --------------------

@    The molecule is planar.

               A                   B                   C

           3978.5088           1282.1797            969.6759 MHz
            0.132709            0.042769            0.032345 cm-1


@  Nuclear repulsion energy :  412.135415267067 Hartree


  Symmetry Orbitals
  -----------------

  Number of orbitals in each symmetry:         235  196  121   94


  Symmetry  A1 ( 1)

    1     C        1s         1
    2     C        1s         2
    3     C        1s         3
    4     C        1s         4
    5     C        1s         5
    6     C        1s         6
    7     C        1s         7
    8     C        2pz       10
    9     C        2pz       13
   10     C        2pz       16
   11     C        2pz       19
   12     C        2pz       22
   13     C        2pz       25
   14     C        3d0       28
   15     C        3d2+      30
   16     C        3d0       33
   17     C        3d2+      35
   18     C        3d0       38
   19     C        3d2+      40
   20     C        3d0       43
   21     C        3d2+      45
   22     C        4f0       49
   23     C        4f2+      51
   24     C        4f0       56
   25     C        4f2+      58
   26     C        1s        60 +   61
   27     C        1s        62 +   63
   28     C        1s        64 +   65
   29     C        1s        66 +   67
   30     C        1s        68 +   69
   31     C        1s        70 +   71
   32     C        1s        72 +   73
   33     C        2px       74 -   75
   34     C        2pz       78 +   79
   35     C        2px       80 -   81
   36     C        2pz       84 +   85
   37     C        2px       86 -   87
   38     C        2pz       90 +   91
   39     C        2px       92 -   93
   40     C        2pz       96 +   97
   41     C        2px       98 -   99
   42     C        2pz      102 +  103
   43     C        2px      104 -  105
   44     C        2pz      108 +  109
   45     C        3d0      114 +  115
   46     C        3d1+     116 -  117
   47     C        3d2+     118 +  119
   48     C        3d0      124 +  125
   49     C        3d1+     126 -  127
   50     C        3d2+     128 +  129
   51     C        3d0      134 +  135
   52     C        3d1+     136 -  137
   53     C        3d2+     138 +  139
   54     C        3d0      144 +  145
   55     C        3d1+     146 -  147
   56     C        3d2+     148 +  149
   57     C        4f0      156 +  157
   58     C        4f1+     158 -  159
   59     C        4f2+     160 +  161
   60     C        4f3+     162 -  163
   61     C        4f0      170 +  171
   62     C        4f1+     172 -  173
   63     C        4f2+     174 +  175
   64     C        4f3+     176 -  177
   65     C        1s       178 +  179
   66     C        1s       180 +  181
   67     C        1s       182 +  183
   68     C        1s       184 +  185
   69     C        1s       186 +  187
   70     C        1s       188 +  189
   71     C        1s       190 +  191
   72     C        2px      192 -  193
   73     C        2pz      196 +  197
   74     C        2px      198 -  199
   75     C        2pz      202 +  203
   76     C        2px      204 -  205
   77     C        2pz      208 +  209
   78     C        2px      210 -  211
   79     C        2pz      214 +  215
   80     C        2px      216 -  217
   81     C        2pz      220 +  221
   82     C        2px      222 -  223
   83     C        2pz      226 +  227
   84     C        3d0      232 +  233
   85     C        3d1+     234 -  235
   86     C        3d2+     236 +  237
   87     C        3d0      242 +  243
   88     C        3d1+     244 -  245
   89     C        3d2+     246 +  247
   90     C        3d0      252 +  253
   91     C        3d1+     254 -  255
   92     C        3d2+     256 +  257
   93     C        3d0      262 +  263
   94     C        3d1+     264 -  265
   95     C        3d2+     266 +  267
   96     C        4f0      274 +  275
   97     C        4f1+     276 -  277
   98     C        4f2+     278 +  279
   99     C        4f3+     280 -  281
  100     C        4f0      288 +  289
  101     C        4f1+     290 -  291
  102     C        4f2+     292 +  293
  103     C        4f3+     294 -  295
  104     C        1s       296
  105     C        1s       297
  106     C        1s       298
  107     C        1s       299
  108     C        1s       300
  109     C        1s       301
  110     C        1s       302
  111     C        2pz      305
  112     C        2pz      308
  113     C        2pz      311
  114     C        2pz      314
  115     C        2pz      317
  116     C        2pz      320
  117     C        3d0      323
  118     C        3d2+     325
  119     C        3d0      328
  120     C        3d2+     330
  121     C        3d0      333
  122     C        3d2+     335
  123     C        3d0      338
  124     C        3d2+     340
  125     C        4f0      344
  126     C        4f2+     346
  127     C        4f0      351
  128     C        4f2+     353
  129     N        1s       355
  130     N        1s       356
  131     N        1s       357
  132     N        1s       358
  133     N        1s       359
  134     N        1s       360
  135     N        1s       361
  136     N        2pz      364
  137     N        2pz      367
  138     N        2pz      370
  139     N        2pz      373
  140     N        2pz      376
  141     N        2pz      379
  142     N        3d0      382
  143     N        3d2+     384
  144     N        3d0      387
  145     N        3d2+     389
  146     N        3d0      392
  147     N        3d2+     394
  148     N        3d0      397
  149     N        3d2+     399
  150     N        4f0      403
  151     N        4f2+     405
  152     N        4f0      410
  153     N        4f2+     412
  154     O        1s       414 +  415
  155     O        1s       416 +  417
  156     O        1s       418 +  419
  157     O        1s       420 +  421
  158     O        1s       422 +  423
  159     O        1s       424 +  425
  160     O        1s       426 +  427
  161     O        2px      428 -  429
  162     O        2pz      432 +  433
  163     O        2px      434 -  435
  164     O        2pz      438 +  439
  165     O        2px      440 -  441
  166     O        2pz      444 +  445
  167     O        2px      446 -  447
  168     O        2pz      450 +  451
  169     O        2px      452 -  453
  170     O        2pz      456 +  457
  171     O        2px      458 -  459
  172     O        2pz      462 +  463
  173     O        3d0      468 +  469
  174     O        3d1+     470 -  471
  175     O        3d2+     472 +  473
  176     O        3d0      478 +  479
  177     O        3d1+     480 -  481
  178     O        3d2+     482 +  483
  179     O        3d0      488 +  489
  180     O        3d1+     490 -  491
  181     O        3d2+     492 +  493
  182     O        3d0      498 +  499
  183     O        3d1+     500 -  501
  184     O        3d2+     502 +  503
  185     O        4f0      510 +  511
  186     O        4f1+     512 -  513
  187     O        4f2+     514 +  515
  188     O        4f3+     516 -  517
  189     O        4f0      524 +  525
  190     O        4f1+     526 -  527
  191     O        4f2+     528 +  529
  192     O        4f3+     530 -  531
  193     H        1s       532 +  533
  194     H        1s       534 +  535
  195     H        1s       536 +  537
  196     H        1s       538 +  539
  197     H        2px      540 -  541
  198     H        2pz      544 +  545
  199     H        2px      546 -  547
  200     H        2pz      550 +  551
  201     H        2px      552 -  553
  202     H        2pz      556 +  557
  203     H        3d0      562 +  563
  204     H        3d1+     564 -  565
  205     H        3d2+     566 +  567
  206     H        3d0      572 +  573
  207     H        3d1+     574 -  575
  208     H        3d2+     576 +  577
  209     H        1s       578 +  579
  210     H        1s       580 +  581
  211     H        1s       582 +  583
  212     H        1s       584 +  585
  213     H        2px      586 -  587
  214     H        2pz      590 +  591
  215     H        2px      592 -  593
  216     H        2pz      596 +  597
  217     H        2px      598 -  599
  218     H        2pz      602 +  603
  219     H        3d0      608 +  609
  220     H        3d1+     610 -  611
  221     H        3d2+     612 +  613
  222     H        3d0      618 +  619
  223     H        3d1+     620 -  621
  224     H        3d2+     622 +  623
  225     H        1s       624
  226     H        1s       625
  227     H        1s       626
  228     H        1s       627
  229     H        2pz      630
  230     H        2pz      633
  231     H        2pz      636
  232     H        3d0      639
  233     H        3d2+     641
  234     H        3d0      644
  235     H        3d2+     646


  Symmetry  B1 ( 2)

  236     C        2px        8
  237     C        2px       11
  238     C        2px       14
  239     C        2px       17
  240     C        2px       20
  241     C        2px       23
  242     C        3d1+      29
  243     C        3d1+      34
  244     C        3d1+      39
  245     C        3d1+      44
  246     C        4f1+      50
  247     C        4f3+      52
  248     C        4f1+      57
  249     C        4f3+      59
  250     C        1s        60 -   61
  251     C        1s        62 -   63
  252     C        1s        64 -   65
  253     C        1s        66 -   67
  254     C        1s        68 -   69
  255     C        1s        70 -   71
  256     C        1s        72 -   73
  257     C        2px       74 +   75
  258     C        2pz       78 -   79
  259     C        2px       80 +   81
  260     C        2pz       84 -   85
  261     C        2px       86 +   87
  262     C        2pz       90 -   91
  263     C        2px       92 +   93
  264     C        2pz       96 -   97
  265     C        2px       98 +   99
  266     C        2pz      102 -  103
  267     C        2px      104 +  105
  268     C        2pz      108 -  109
  269     C        3d0      114 -  115
  270     C        3d1+     116 +  117
  271     C        3d2+     118 -  119
  272     C        3d0      124 -  125
  273     C        3d1+     126 +  127
  274     C        3d2+     128 -  129
  275     C        3d0      134 -  135
  276     C        3d1+     136 +  137
  277     C        3d2+     138 -  139
  278     C        3d0      144 -  145
  279     C        3d1+     146 +  147
  280     C        3d2+     148 -  149
  281     C        4f0      156 -  157
  282     C        4f1+     158 +  159
  283     C        4f2+     160 -  161
  284     C        4f3+     162 +  163
  285     C        4f0      170 -  171
  286     C        4f1+     172 +  173
  287     C        4f2+     174 -  175
  288     C        4f3+     176 +  177
  289     C        1s       178 -  179
  290     C        1s       180 -  181
  291     C        1s       182 -  183
  292     C        1s       184 -  185
  293     C        1s       186 -  187
  294     C        1s       188 -  189
  295     C        1s       190 -  191
  296     C        2px      192 +  193
  297     C        2pz      196 -  197
  298     C        2px      198 +  199
  299     C        2pz      202 -  203
  300     C        2px      204 +  205
  301     C        2pz      208 -  209
  302     C        2px      210 +  211
  303     C        2pz      214 -  215
  304     C        2px      216 +  217
  305     C        2pz      220 -  221
  306     C        2px      222 +  223
  307     C        2pz      226 -  227
  308     C        3d0      232 -  233
  309     C        3d1+     234 +  235
  310     C        3d2+     236 -  237
  311     C        3d0      242 -  243
  312     C        3d1+     244 +  245
  313     C        3d2+     246 -  247
  314     C        3d0      252 -  253
  315     C        3d1+     254 +  255
  316     C        3d2+     256 -  257
  317     C        3d0      262 -  263
  318     C        3d1+     264 +  265
  319     C        3d2+     266 -  267
  320     C        4f0      274 -  275
  321     C        4f1+     276 +  277
  322     C        4f2+     278 -  279
  323     C        4f3+     280 +  281
  324     C        4f0      288 -  289
  325     C        4f1+     290 +  291
  326     C        4f2+     292 -  293
  327     C        4f3+     294 +  295
  328     C        2px      303
  329     C        2px      306
  330     C        2px      309
  331     C        2px      312
  332     C        2px      315
  333     C        2px      318
  334     C        3d1+     324
  335     C        3d1+     329
  336     C        3d1+     334
  337     C        3d1+     339
  338     C        4f1+     345
  339     C        4f3+     347
  340     C        4f1+     352
  341     C        4f3+     354
  342     N        2px      362
  343     N        2px      365
  344     N        2px      368
  345     N        2px      371
  346     N        2px      374
  347     N        2px      377
  348     N        3d1+     383
  349     N        3d1+     388
  350     N        3d1+     393
  351     N        3d1+     398
  352     N        4f1+     404
  353     N        4f3+     406
  354     N        4f1+     411
  355     N        4f3+     413
  356     O        1s       414 -  415
  357     O        1s       416 -  417
  358     O        1s       418 -  419
  359     O        1s       420 -  421
  360     O        1s       422 -  423
  361     O        1s       424 -  425
  362     O        1s       426 -  427
  363     O        2px      428 +  429
  364     O        2pz      432 -  433
  365     O        2px      434 +  435
  366     O        2pz      438 -  439
  367     O        2px      440 +  441
  368     O        2pz      444 -  445
  369     O        2px      446 +  447
  370     O        2pz      450 -  451
  371     O        2px      452 +  453
  372     O        2pz      456 -  457
  373     O        2px      458 +  459
  374     O        2pz      462 -  463
  375     O        3d0      468 -  469
  376     O        3d1+     470 +  471
  377     O        3d2+     472 -  473
  378     O        3d0      478 -  479
  379     O        3d1+     480 +  481
  380     O        3d2+     482 -  483
  381     O        3d0      488 -  489
  382     O        3d1+     490 +  491
  383     O        3d2+     492 -  493
  384     O        3d0      498 -  499
  385     O        3d1+     500 +  501
  386     O        3d2+     502 -  503
  387     O        4f0      510 -  511
  388     O        4f1+     512 +  513
  389     O        4f2+     514 -  515
  390     O        4f3+     516 +  517
  391     O        4f0      524 -  525
  392     O        4f1+     526 +  527
  393     O        4f2+     528 -  529
  394     O        4f3+     530 +  531
  395     H        1s       532 -  533
  396     H        1s       534 -  535
  397     H        1s       536 -  537
  398     H        1s       538 -  539
  399     H        2px      540 +  541
  400     H        2pz      544 -  545
  401     H        2px      546 +  547
  402     H        2pz      550 -  551
  403     H        2px      552 +  553
  404     H        2pz      556 -  557
  405     H        3d0      562 -  563
  406     H        3d1+     564 +  565
  407     H        3d2+     566 -  567
  408     H        3d0      572 -  573
  409     H        3d1+     574 +  575
  410     H        3d2+     576 -  577
  411     H        1s       578 -  579
  412     H        1s       580 -  581
  413     H        1s       582 -  583
  414     H        1s       584 -  585
  415     H        2px      586 +  587
  416     H        2pz      590 -  591
  417     H        2px      592 +  593
  418     H        2pz      596 -  597
  419     H        2px      598 +  599
  420     H        2pz      602 -  603
  421     H        3d0      608 -  609
  422     H        3d1+     610 +  611
  423     H        3d2+     612 -  613
  424     H        3d0      618 -  619
  425     H        3d1+     620 +  621
  426     H        3d2+     622 -  623
  427     H        2px      628
  428     H        2px      631
  429     H        2px      634
  430     H        3d1+     640
  431     H        3d1+     645


  Symmetry  B2 ( 3)

  432     C        2py        9
  433     C        2py       12
  434     C        2py       15
  435     C        2py       18
  436     C        2py       21
  437     C        2py       24
  438     C        3d1-      27
  439     C        3d1-      32
  440     C        3d1-      37
  441     C        3d1-      42
  442     C        4f3-      46
  443     C        4f1-      48
  444     C        4f3-      53
  445     C        4f1-      55
  446     C        2py       76 +   77
  447     C        2py       82 +   83
  448     C        2py       88 +   89
  449     C        2py       94 +   95
  450     C        2py      100 +  101
  451     C        2py      106 +  107
  452     C        3d2-     110 -  111
  453     C        3d1-     112 +  113
  454     C        3d2-     120 -  121
  455     C        3d1-     122 +  123
  456     C        3d2-     130 -  131
  457     C        3d1-     132 +  133
  458     C        3d2-     140 -  141
  459     C        3d1-     142 +  143
  460     C        4f3-     150 +  151
  461     C        4f2-     152 -  153
  462     C        4f1-     154 +  155
  463     C        4f3-     164 +  165
  464     C        4f2-     166 -  167
  465     C        4f1-     168 +  169
  466     C        2py      194 +  195
  467     C        2py      200 +  201
  468     C        2py      206 +  207
  469     C        2py      212 +  213
  470     C        2py      218 +  219
  471     C        2py      224 +  225
  472     C        3d2-     228 -  229
  473     C        3d1-     230 +  231
  474     C        3d2-     238 -  239
  475     C        3d1-     240 +  241
  476     C        3d2-     248 -  249
  477     C        3d1-     250 +  251
  478     C        3d2-     258 -  259
  479     C        3d1-     260 +  261
  480     C        4f3-     268 +  269
  481     C        4f2-     270 -  271
  482     C        4f1-     272 +  273
  483     C        4f3-     282 +  283
  484     C        4f2-     284 -  285
  485     C        4f1-     286 +  287
  486     C        2py      304
  487     C        2py      307
  488     C        2py      310
  489     C        2py      313
  490     C        2py      316
  491     C        2py      319
  492     C        3d1-     322
  493     C        3d1-     327
  494     C        3d1-     332
  495     C        3d1-     337
  496     C        4f3-     341
  497     C        4f1-     343
  498     C        4f3-     348
  499     C        4f1-     350
  500     N        2py      363
  501     N        2py      366
  502     N        2py      369
  503     N        2py      372
  504     N        2py      375
  505     N        2py      378
  506     N        3d1-     381
  507     N        3d1-     386
  508     N        3d1-     391
  509     N        3d1-     396
  510     N        4f3-     400
  511     N        4f1-     402
  512     N        4f3-     407
  513     N        4f1-     409
  514     O        2py      430 +  431
  515     O        2py      436 +  437
  516     O        2py      442 +  443
  517     O        2py      448 +  449
  518     O        2py      454 +  455
  519     O        2py      460 +  461
  520     O        3d2-     464 -  465
  521     O        3d1-     466 +  467
  522     O        3d2-     474 -  475
  523     O        3d1-     476 +  477
  524     O        3d2-     484 -  485
  525     O        3d1-     486 +  487
  526     O        3d2-     494 -  495
  527     O        3d1-     496 +  497
  528     O        4f3-     504 +  505
  529     O        4f2-     506 -  507
  530     O        4f1-     508 +  509
  531     O        4f3-     518 +  519
  532     O        4f2-     520 -  521
  533     O        4f1-     522 +  523
  534     H        2py      542 +  543
  535     H        2py      548 +  549
  536     H        2py      554 +  555
  537     H        3d2-     558 -  559
  538     H        3d1-     560 +  561
  539     H        3d2-     568 -  569
  540     H        3d1-     570 +  571
  541     H        2py      588 +  589
  542     H        2py      594 +  595
  543     H        2py      600 +  601
  544     H        3d2-     604 -  605
  545     H        3d1-     606 +  607
  546     H        3d2-     614 -  615
  547     H        3d1-     616 +  617
  548     H        2py      629
  549     H        2py      632
  550     H        2py      635
  551     H        3d1-     638
  552     H        3d1-     643


  Symmetry  A2 ( 4)

  553     C        3d2-      26
  554     C        3d2-      31
  555     C        3d2-      36
  556     C        3d2-      41
  557     C        4f2-      47
  558     C        4f2-      54
  559     C        2py       76 -   77
  560     C        2py       82 -   83
  561     C        2py       88 -   89
  562     C        2py       94 -   95
  563     C        2py      100 -  101
  564     C        2py      106 -  107
  565     C        3d2-     110 +  111
  566     C        3d1-     112 -  113
  567     C        3d2-     120 +  121
  568     C        3d1-     122 -  123
  569     C        3d2-     130 +  131
  570     C        3d1-     132 -  133
  571     C        3d2-     140 +  141
  572     C        3d1-     142 -  143
  573     C        4f3-     150 -  151
  574     C        4f2-     152 +  153
  575     C        4f1-     154 -  155
  576     C        4f3-     164 -  165
  577     C        4f2-     166 +  167
  578     C        4f1-     168 -  169
  579     C        2py      194 -  195
  580     C        2py      200 -  201
  581     C        2py      206 -  207
  582     C        2py      212 -  213
  583     C        2py      218 -  219
  584     C        2py      224 -  225
  585     C        3d2-     228 +  229
  586     C        3d1-     230 -  231
  587     C        3d2-     238 +  239
  588     C        3d1-     240 -  241
  589     C        3d2-     248 +  249
  590     C        3d1-     250 -  251
  591     C        3d2-     258 +  259
  592     C        3d1-     260 -  261
  593     C        4f3-     268 -  269
  594     C        4f2-     270 +  271
  595     C        4f1-     272 -  273
  596     C        4f3-     282 -  283
  597     C        4f2-     284 +  285
  598     C        4f1-     286 -  287
  599     C        3d2-     321
  600     C        3d2-     326
  601     C        3d2-     331
  602     C        3d2-     336
  603     C        4f2-     342
  604     C        4f2-     349
  605     N        3d2-     380
  606     N        3d2-     385
  607     N        3d2-     390
  608     N        3d2-     395
  609     N        4f2-     401
  610     N        4f2-     408
  611     O        2py      430 -  431
  612     O        2py      436 -  437
  613     O        2py      442 -  443
  614     O        2py      448 -  449
  615     O        2py      454 -  455
  616     O        2py      460 -  461
  617     O        3d2-     464 +  465
  618     O        3d1-     466 -  467
  619     O        3d2-     474 +  475
  620     O        3d1-     476 -  477
  621     O        3d2-     484 +  485
  622     O        3d1-     486 -  487
  623     O        3d2-     494 +  495
  624     O        3d1-     496 -  497
  625     O        4f3-     504 -  505
  626     O        4f2-     506 +  507
  627     O        4f1-     508 -  509
  628     O        4f3-     518 -  519
  629     O        4f2-     520 +  521
  630     O        4f1-     522 -  523
  631     H        2py      542 -  543
  632     H        2py      548 -  549
  633     H        2py      554 -  555
  634     H        3d2-     558 +  559
  635     H        3d1-     560 -  561
  636     H        3d2-     568 +  569
  637     H        3d1-     570 -  571
  638     H        2py      588 -  589
  639     H        2py      594 -  595
  640     H        2py      600 -  601
  641     H        3d2-     604 +  605
  642     H        3d1-     606 -  607
  643     H        3d2-     614 +  615
  644     H        3d1-     616 -  617
  645     H        3d2-     637
  646     H        3d2-     642

  Symmetries of electric field:  B1 (2)  B2 (3)  A1 (1)

  Symmetries of magnetic field:  B2 (3)  B1 (2)  A2 (4)


                     .---------------------------------------.
                     | Starting in Integral Section (HERMIT) |
                     `---------------------------------------'



 ***************************************************************************************
 ****************** Output from **INTEGRALS input processing (HERMIT) ******************
 ***************************************************************************************


 - Using defaults, no **INTEGRALS input found

 Default print level:        1

 Calculation of one-electron Hamiltonian integrals.

 Center of mass  (bohr):      0.000000000000      0.000000000000     -0.383938108481
 Operator center (bohr):      0.000000000000      0.000000000000      0.000000000000
 Gauge origin    (bohr):      0.000000000000      0.000000000000      0.000000000000
 Dipole origin   (bohr):      0.000000000000      0.000000000000      0.000000000000


     ************************************************************************
     ************************** Output from HERINT **************************
     ************************************************************************



                      Nuclear contribution to dipole moments
                      --------------------------------------

                 au               Debye          C m (/(10**-30)

      z    -32.41191504       -82.38286538      -274.79965949


  Time used in ONEDRV     is       0.25 seconds
  Time used in QUADRUP    is       0.14 seconds
  Time used in GABGEN     is       0.88 seconds
  Total CPU  time used in HERMIT:   1.78 seconds
  Total wall time used in HERMIT:   1.78 seconds


                        .----------------------------------.
                        | End of Integral Section (HERMIT) |
                        `----------------------------------'



                   .--------------------------------------------.
                   | Starting in Wave Function Section (SIRIUS) |
                   `--------------------------------------------'


 *** Output from Huckel module :

     Using EWMO model:          F
     Using EHT  model:          T
     Number of Huckel orbitals each symmetry:   24   17    6    3

 Huckel EHT eigenvalues for symmetry :  1
          -20.695822     -15.706036     -11.414993     -11.394585     -11.376746
          -11.362597      -1.748744      -1.555382      -1.196259      -0.941364
           -0.817059      -0.782210      -0.643577      -0.589224      -0.493397
           -0.429144      -0.328230      -0.246947      -0.225806      -0.213738
           -0.205823      -0.178738      -0.166343      -0.160473

 Huckel EHT eigenvalues for symmetry :  2
          -20.700625     -11.396474     -11.377857      -1.399983      -1.203200
           -0.879843      -0.646405      -0.569964      -0.526471      -0.479328
           -0.414891      -0.271537      -0.213209      -0.202807      -0.176234
           -0.165379      -0.163255

 Huckel EHT eigenvalues for symmetry :  3
           -0.800032      -0.672072      -0.465792      -0.384453      -0.281766
           -0.236539

 Huckel EHT eigenvalues for symmetry :  4
           -0.592875      -0.460139      -0.288832

 **********************************************************************
 *SIRIUS* a direct, restricted step, second order MCSCF program       *
 **********************************************************************

 
     Date and time (Linux)  : Thu Jul 11 14:22:53 2019
     Host name              : Lab2-333-NPs                            

 Title lines from ".mol" input file:
      nitrobenzene                                                           
      Generated by the Dalton Input File Plugin for Avogadro                 

 Print level on unit LUPRI =   2 is   0
 Print level on unit LUW4  =   2 is   5

@    MC-SCF optimization.

@    Multi-configurational response calculation.
@              Type: complete active space calculation (CAS).

@    This is a combination run starting with
@              a restricted, closed shell Hartree-Fock calculation
@              an MP2 calculation

 Fock matrices are calculated directly without use of integrals on disk.

 Initial molecular orbitals are obtained according to
 ".MOSTART EHT   " input option

     Wave function specification
     ============================
@    Wave function type        --- MC-SCF ---
@    Number of closed shell electrons          54
@    Number of electrons in active shells      10
@    Total charge of the molecule               0

@    Spin multiplicity and 2 M_S                1         0
@    Total number of symmetries                 4 (point group: C2v)
@    Reference state symmetry                   1 (irrep name : A1 )

     Orbital specifications
     ======================
@    Abelian symmetry species          All |    1    2    3    4
@                                          |  A1   B1   B2   A2 
                                       --- |  ---  ---  ---  ---
@    Inactive orbitals                  27 |   15   10    2    0
@    Active orbitals                     5 |    1    1    1    2
@    Secondary orbitals                614 |  219  185  118   92
@    Total number of orbitals          646 |  235  196  121   94
@    Number of basis functions         646 |  235  196  121   94

      ** Automatic occupation of RHF orbitals **

      -- Initial occupation of symmetries is determined from extended Huckel guess.           
      -- Initial occupation of symmetries is :
@    Occupied SCF orbitals              32 |   16   11    3    2

     Optimization information
     ========================
@    Number of determinants                   1
@    Number of orbital rotations           6104
     ------------------------------------------
@    Total number of variables             6105

     Maximum number of macro iterations      25
     Maximum number of micro iterations     600
     Threshold for MCSCF gradient      1.00D-05
     Number of initial trial vectors          1
     Number of initial CI iterations          3
     Number of simultaneous trial vectors     1

@    This calculation converges to the lowest state for the specified symmetry and spin species.

     Maximum number of NEO/NR iterations  24

    INFORMATION: Switched to "new" integral transformation (from 1988 ;-) )
    because more than 255 basis functions.


 ***********************************************
 ***** DIIS acceleration of SCF iterations *****
 ***********************************************

 C1-DIIS algorithm; max error vectors =    8

 Automatic occupation of symmetries with  64 electrons.

 Iter     Total energy    Error norm  Delta(E)    SCF occupation
 -----------------------------------------------------------------------------
   1  Screening settings (-IFTHRS, JTDIIS, DIFDEN, times)   -9    1    T  4.75D+02  4.75D+02
@  1  -432.313137327       6.84D+00  -4.32D+02    16  11   3   2
      Virial theorem: -V/T =      1.998784
@    MULPOP   C       0.25; C   _1 -0.16; C   _2 -0.16; C   _1 -0.31; C   _2 -0.31; C      -0.18; N       0.97; O   _1 -0.84; O   _2 -0.84; H   _1  0.30; 
@             H   _2  0.30; H   _1  0.35; H   _2  0.35; H       0.27; 
   1  Level shift: doubly occupied orbital energies shifted by -2.00D-01
 -----------------------------------------------------------------------------
   2  Screening settings (-IFTHRS, JTDIIS, DIFDEN, times)   -9    2    T  4.74D+02  4.74D+02
@  2  -433.925405822       3.05D+00  -1.61D+00    16  11   3   2
      Virial theorem: -V/T =      2.000746
@    MULPOP   C       0.14; C   _1 -0.46; C   _2 -0.46; C   _1 -0.51; C   _2 -0.51; C      -0.51; N       0.00; O   _1 -0.25; O   _2 -0.25; H   _1  0.68; 
@             H   _2  0.68; H   _1  0.44; H   _2  0.44; H       0.57; 
   2  Level shift: doubly occupied orbital energies shifted by -1.00D-01
 -----------------------------------------------------------------------------
   3  Screening settings (-IFTHRS, JTDIIS, DIFDEN, times)   -9    3    T  4.72D+02  4.72D+02
@  3  -434.299145496       7.83D-01  -3.74D-01    16  11   3   2
      Virial theorem: -V/T =      2.000411
@    MULPOP   C       0.47; C   _1 -0.47; C   _2 -0.47; C   _1 -0.58; C   _2 -0.58; C      -0.54; N       0.94; O   _1 -0.78; O   _2 -0.78; H   _1  0.68; 
@             H   _2  0.68; H   _1  0.43; H   _2  0.43; H       0.56; 
   3  Level shift: doubly occupied orbital energies shifted by -5.00D-02
 -----------------------------------------------------------------------------
   4  Screening settings (-IFTHRS, JTDIIS, DIFDEN, times)   -9    4    T  4.66D+02  4.67D+02
@  4  -434.327474568       1.86D-01  -2.83D-02    16  11   3   2
      Virial theorem: -V/T =      2.002340
@    MULPOP   C       0.39; C   _1 -0.46; C   _2 -0.46; C   _1 -0.54; C   _2 -0.54; C      -0.49; N       0.75; O   _1 -0.71; O   _2 -0.71; H   _1  0.69; 
@             H   _2  0.69; H   _1  0.41; H   _2  0.41; H       0.56; 
   4  Level shift: doubly occupied orbital energies shifted by -1.25D-02
 -----------------------------------------------------------------------------
   5  Screening settings (-IFTHRS, JTDIIS, DIFDEN, times)   -9    5    T  4.62D+02  4.62D+02
@  5  -434.330156255       5.83D-02  -2.68D-03    16  11   3   2
      Virial theorem: -V/T =      2.001720
@    MULPOP   C       0.43; C   _1 -0.48; C   _2 -0.48; C   _1 -0.55; C   _2 -0.55; C      -0.53; N       0.78; O   _1 -0.72; O   _2 -0.72; H   _1  0.70; 
@             H   _2  0.70; H   _1  0.43; H   _2  0.43; H       0.57; 
 -----------------------------------------------------------------------------
   6  Screening settings (-IFTHRS, JTDIIS, DIFDEN, times)  -11    6    F  4.82D+02  4.82D+02
@  6  -434.330518964       1.61D-02  -3.63D-04    16  11   3   2
      Virial theorem: -V/T =      2.001661
@    MULPOP   C       0.42; C   _1 -0.49; C   _2 -0.49; C   _1 -0.54; C   _2 -0.54; C      -0.52; N       0.77; O   _1 -0.72; O   _2 -0.72; H   _1  0.71; 
@             H   _2  0.71; H   _1  0.42; H   _2  0.42; H       0.57; 
 -----------------------------------------------------------------------------
   7  Screening settings (-IFTHRS, JTDIIS, DIFDEN, times)  -11    7    T  4.70D+02  4.70D+02
@  7  -434.330555141       6.26D-03  -3.62D-05    16  11   3   2
      Virial theorem: -V/T =      2.001695
@    MULPOP   C       0.43; C   _1 -0.49; C   _2 -0.49; C   _1 -0.54; C   _2 -0.54; C      -0.53; N       0.77; O   _1 -0.72; O   _2 -0.72; H   _1  0.71; 
@             H   _2  0.71; H   _1  0.42; H   _2  0.42; H       0.57; 
 -----------------------------------------------------------------------------
   8  Screening settings (-IFTHRS, JTDIIS, DIFDEN, times)  -14    8    F  4.89D+02  4.89D+02
@  8  -434.330560130       2.16D-03  -4.99D-06    16  11   3   2
      Virial theorem: -V/T =      2.001681
@    MULPOP   C       0.43; C   _1 -0.49; C   _2 -0.49; C   _1 -0.54; C   _2 -0.54; C      -0.53; N       0.77; O   _1 -0.72; O   _2 -0.72; H   _1  0.71; 
@             H   _2  0.71; H   _1  0.42; H   _2  0.42; H       0.57; 
 -----------------------------------------------------------------------------
   9  Screening settings (-IFTHRS, JTDIIS, DIFDEN, times)  -14    9    T  4.79D+02  4.80D+02
@  9  -434.330560690       6.91D-04  -5.60D-07    16  11   3   2
      Virial theorem: -V/T =      2.001679
@    MULPOP   C       0.43; C   _1 -0.49; C   _2 -0.49; C   _1 -0.54; C   _2 -0.54; C      -0.53; N       0.77; O   _1 -0.72; O   _2 -0.72; H   _1  0.71; 
@             H   _2  0.71; H   _1  0.42; H   _2  0.42; H       0.57; 
 -----------------------------------------------------------------------------
  10  Screening settings (-IFTHRS, JTDIIS, DIFDEN, times)  -14   10    T  4.77D+02  4.78D+02
@ 10  -434.330560747       2.37D-04  -5.66D-08    16  11   3   2
      Virial theorem: -V/T =      2.001680
@    MULPOP   C       0.43; C   _1 -0.49; C   _2 -0.49; C   _1 -0.54; C   _2 -0.54; C      -0.53; N       0.77; O   _1 -0.72; O   _2 -0.72; H   _1  0.71; 
@             H   _2  0.71; H   _1  0.42; H   _2  0.42; H       0.57; 
 -----------------------------------------------------------------------------
  11  Screening settings (-IFTHRS, JTDIIS, DIFDEN, times)  -14   11    T  4.78D+02  4.78D+02
@ 11  -434.330560756       9.08D-05  -8.95D-09    16  11   3   2
      Virial theorem: -V/T =      2.001680
@    MULPOP   C       0.43; C   _1 -0.49; C   _2 -0.49; C   _1 -0.54; C   _2 -0.54; C      -0.53; N       0.77; O   _1 -0.72; O   _2 -0.72; H   _1  0.71; 
@             H   _2  0.71; H   _1  0.42; H   _2  0.42; H       0.57; 
 -----------------------------------------------------------------------------
  12  Screening settings (-IFTHRS, JTDIIS, DIFDEN, times)  -14   12    T  4.75D+02  4.75D+02
@ 12  -434.330560757       3.71D-05  -1.59D-09    16  11   3   2
      Virial theorem: -V/T =      2.001680
@    MULPOP   C       0.43; C   _1 -0.49; C   _2 -0.49; C   _1 -0.54; C   _2 -0.54; C      -0.53; N       0.77; O   _1 -0.72; O   _2 -0.72; H   _1  0.71; 
@             H   _2  0.71; H   _1  0.42; H   _2  0.42; H       0.57; 
 -----------------------------------------------------------------------------
  13  Screening settings (-IFTHRS, JTDIIS, DIFDEN, times)  -14   13    T  4.72D+02  4.72D+02
@ 13  -434.330560758       2.15D-05  -2.73D-10    16  11   3   2
      Virial theorem: -V/T =      2.001680
@    MULPOP   C       0.43; C   _1 -0.49; C   _2 -0.49; C   _1 -0.54; C   _2 -0.54; C      -0.53; N       0.77; O   _1 -0.72; O   _2 -0.72; H   _1  0.71; 
@             H   _2  0.71; H   _1  0.42; H   _2  0.42; H       0.57; 
 -----------------------------------------------------------------------------
  14  Screening settings (-IFTHRS, JTDIIS, DIFDEN, times)  -14   14    T  4.72D+02  4.72D+02
@ 14  -434.330560758       7.45D-06  -7.98D-11    16  11   3   2
      Virial theorem: -V/T =      2.001680
@    MULPOP   C       0.43; C   _1 -0.49; C   _2 -0.49; C   _1 -0.54; C   _2 -0.54; C      -0.53; N       0.77; O   _1 -0.72; O   _2 -0.72; H   _1  0.71; 
@             H   _2  0.71; H   _1  0.42; H   _2  0.42; H       0.57; 
 -----------------------------------------------------------------------------
  15  Screening settings (-IFTHRS, JTDIIS, DIFDEN, times)  -14   15    T  4.68D+02  4.68D+02
@ 15  -434.330560758       3.13D-06  -4.63D-11    16  11   3   2
      Virial theorem: -V/T =      2.001680
@    MULPOP   C       0.43; C   _1 -0.49; C   _2 -0.49; C   _1 -0.54; C   _2 -0.54; C      -0.53; N       0.77; O   _1 -0.72; O   _2 -0.72; H   _1  0.71; 
@             H   _2  0.71; H   _1  0.42; H   _2  0.42; H       0.57; 
 -----------------------------------------------------------------------------
  16  Screening settings (-IFTHRS, JTDIIS, DIFDEN, times)  -14   16    T  4.67D+02  4.67D+02
@ 16  -434.330560758       1.46D-06  -7.73D-12    16  11   3   2
      Virial theorem: -V/T =      2.001680
@    MULPOP   C       0.43; C   _1 -0.49; C   _2 -0.49; C   _1 -0.54; C   _2 -0.54; C      -0.53; N       0.77; O   _1 -0.72; O   _2 -0.72; H   _1  0.71; 
@             H   _2  0.71; H   _1  0.42; H   _2  0.42; H       0.57; 
 -----------------------------------------------------------------------------
  17  Screening settings (-IFTHRS, JTDIIS, DIFDEN, times)  -14   17    T  4.67D+02  4.67D+02
@ 17  -434.330560758       5.57D-07  -1.56D-11    16  11   3   2

@ *** DIIS converged in  17 iterations !
@     Converged SCF energy, gradient:   -434.330560757729    5.57D-07
    - total time used in SIRFCK :              0.00 seconds

 --- Writing SIRIFC interface file

 CPU and wall time for SCF :    8047.953    8053.644


 ----- Output from SIRIUS MP2 module -----

 Reference: H.J.Aa.Jensen, P.Jorgensen, H.Agren, and J.Olsen,
            J. Chem. Phys. 88, 3834 (1988); 89, 5354 (1988)

 Checking that the closed shell orbitals are canonical Hartree-Fock orbitals

    Number of electrons  :   64
    Closed shell orbitals:   16   11    3    2

 Generating Fock matrix

 Hartree-Fock electronic energy:        -846.465976024770
 Hartree-Fock total      energy:        -434.330560757703

 Hartree-Fock orbital energies, symmetry 1 ( A1 ),   16 occupied SCF orbitals

       -20.60240917   -15.85457699   -11.31315710   -11.27651067   -11.27392374
       -11.26635334    -1.60525665    -1.19938645    -1.09196781    -0.96062437
        -0.83075135    -0.78158614    -0.70917724    -0.65152919    -0.55641723
        -0.49540344     0.02124591     0.03676118     0.05209806     0.08798013
         0.10731780     0.10839471     0.12405919     0.13045247     0.14380879
         0.15145248     0.18288405     0.21158614     0.23588914     0.25252595
         0.25741007     0.27875780     0.29084437     0.30980571     0.31518850
         0.32661359     0.33482290     0.34592479     0.37872993     0.38643932
         0.43209912     0.44121974     0.45982526     0.46666699     0.48314712
         0.49319079     0.50744470     0.52148412     0.53597519     0.58586159
         0.61074372     0.61925875     0.65033797     0.66882575     0.69794387
         0.70934055     0.73812733     0.75092049     0.80179900     0.80796305
         0.82954787     0.84861084     0.86016136     0.87316071     0.89961239
         0.91361159     0.93303774     0.99759931     1.02182792     1.02690953
         1.05146700     1.06136594     1.08373790     1.12691430     1.14280569
         1.16951279     1.18336471     1.19143637     1.21962689     1.25589520
         1.25961342     1.30343572     1.35272034     1.36922982     1.38449667
         1.41397397     1.48130147     1.50573481     1.51757666     1.58819706
         1.63956980     1.71384474     1.72373183     1.74730507     1.79615649
         1.81959757     1.88006429     1.92836939     1.94071488     1.94667031
         2.00951230     2.04067945     2.05466166     2.06985642     2.12516772
         2.14461860     2.20047077     2.29193240     2.31042933     2.35400393
         2.37423662     2.43128075     2.43180774     2.49699654     2.53650092
         2.58940071     2.59612690     2.68719650     2.78105110     2.80299725
         2.90619213     2.92637748     3.09985434     3.15622845     3.25426428
         3.28147760     3.36170086     3.44080990     3.45616190     3.52167693
         3.57217565     3.60600114     3.66056952     3.75408872     3.77245307
         3.79415850     3.84836533     3.88725154     3.92737503     3.94174197
         3.97178713     3.98797574     4.04141549     4.12147058     4.17128686
         4.21225375     4.27408443     4.30286262     4.33114518     4.42992715
         4.44067675     4.58059977     4.61209166     4.70903000     4.76307806
         4.83102293     4.90096016     4.94097079     5.00723981     5.03459286
         5.07234418     5.12615956     5.26906660     5.31706055     5.42407644
         5.54385341     5.58795647     5.61245050     5.68890731     5.79060843
         5.93773567     5.96442888     6.08766530     6.23384202     6.34695903
         6.45843120     6.55973393     6.67254085     6.76491430     6.79666138
         6.85892929     6.95823123     7.01353355     7.14043173     7.20818106
         7.62581810     7.71399956     8.01165726     8.10256668     9.32368890
        16.82984111    16.86315000    16.98056348    17.08653570    17.12197766
        17.31138361    17.32851530    18.28776061    18.50255668    19.29179227
        22.37790041    23.45409125    26.82567013    27.88280883    30.22953429
        39.20363557    39.49776921    41.52679795    41.58369616    41.60807528
        41.69131695    41.80188882    41.82688985    41.87231832    41.92749184
        41.94012739    41.97634052    44.06431590    44.22489205    44.30454527
        82.09556598    82.11165230    82.24244027    82.35326670    82.45611341
        82.47792464    86.85796467    88.30416629    88.91254541    90.51222997
       110.06536098   117.81226280   138.78242992   139.70361696   151.42958566

 Hartree-Fock orbital energies, symmetry 2 ( B1 ),   11 occupied SCF orbitals

       -20.60246054   -11.27654781   -11.26646122    -1.39936339    -1.05322411
        -0.86596032    -0.72849912    -0.65712272    -0.62562828    -0.53229219
        -0.49558513     0.02944188     0.05005147     0.10606157     0.11192070
         0.12955590     0.14548853     0.15381099     0.18450880     0.22506567
         0.23702858     0.25637930     0.27354665     0.30332950     0.30877264
         0.31408516     0.34520543     0.37880355     0.41888089     0.45183446
         0.47163830     0.47469303     0.48518983     0.50960843     0.51840693
         0.52634993     0.53362587     0.61928381     0.65411030     0.66199688
         0.69450297     0.70617200     0.72293941     0.76109380     0.81080863
         0.82593111     0.84518746     0.86177820     0.91294520     0.91734558
         0.95901489     0.98742895     1.03700023     1.05914187     1.07269662
         1.08014992     1.10339089     1.14372590     1.16233752     1.17179673
         1.19285626     1.22309384     1.28842719     1.32723907     1.33294759
         1.35999767     1.43915664     1.48136668     1.50914191     1.59400621
         1.66506640     1.68038360     1.69742043     1.73193296     1.77794957
         1.78594085     1.83202744     1.85617043     1.90553333     1.98496275
         2.00905619     2.06794836     2.08176200     2.12466962     2.14168599
         2.21063832     2.28828950     2.33327338     2.36018329     2.44627285
         2.47446141     2.56698263     2.58547485     2.64887266     2.70890012
         2.74016751     2.77802251     2.82714711     2.86882418     2.99498561
         3.07684985     3.11237652     3.23074266     3.25056156     3.32594039
         3.40572802     3.43112455     3.49671441     3.54362392     3.62253874
         3.67263382     3.75993474     3.82777850     3.88538284     3.93015887
         3.95210352     4.00120151     4.07330494     4.19057088     4.22241141
         4.29055443     4.35871814     4.38716410     4.41086227     4.50025182
         4.54016228     4.61777235     4.67131799     4.87007040     4.95042119
         5.00387849     5.05371079     5.09877443     5.14496429     5.22733776
         5.36025548     5.44516303     5.49718774     5.67242852     5.74172534
         5.81238773     5.82682092     5.95478042     6.07238060     6.19211753
         6.27273744     6.39824418     6.69232270     6.73336864     6.77745553
         6.80950993     7.00051278     7.03739751     7.20934303     7.32011108
         7.41518147     7.92615044     7.99147729     8.15133617     8.94427266
        16.70097849    16.84799361    16.99157880    17.05824260    17.10147156
        18.21871809    18.41977548    18.45885516    22.19619626    27.37761642
        27.94065758    30.38503243    39.55048578    41.54474750    41.59866817
        41.60521521    41.81756995    41.84943096    41.89885295    41.92789868
        41.94678345    44.01770922    44.19460326    44.23435626    81.99613204
        82.08988345    82.25054535    82.34382971    82.40608032    83.19474170
        88.60574859    88.80425706   109.94835472   139.19573811   139.83575215
       151.32673808

 Hartree-Fock orbital energies, symmetry 3 ( B2 ),    3 occupied SCF orbitals

        -0.71900956    -0.53802618    -0.37855922     0.03474332     0.08468281
         0.10952737     0.11641408     0.15631783     0.16548386     0.19417363
         0.26499945     0.29073075     0.31070170     0.33482078     0.40999492
         0.43110119     0.43396400     0.44093349     0.50076472     0.56681683
         0.60027198     0.61444617     0.65400361     0.76247835     0.83054362
         0.87841209     0.88479117     0.90404182     0.92246224     0.96263436
         0.98984831     1.03980466     1.05376094     1.08564681     1.14648964
         1.21120105     1.24344920     1.29124688     1.34505113     1.37790381
         1.44631989     1.47630266     1.60266406     1.63689278     1.67774013
         1.79500996     1.85882979     1.86527735     1.95373408     1.98467599
         2.06106621     2.10598204     2.19974135     2.22744014     2.29396245
         2.30522192     2.36623803     2.44494656     2.53719653     2.68893138
         2.74908585     2.95482150     3.09356107     3.18707076     3.21467886
         3.32202276     3.36636634     3.44360766     3.50984733     3.53520202
         3.55718372     3.61745786     3.74016301     3.79583065     3.83747315
         3.95483066     4.07061159     4.14350499     4.22551236     4.29769372
         4.34221667     4.41165620     4.61188245     4.72233960     4.75058677
         4.83562928     4.94741738     5.07414648     5.11415510     5.16530644
         5.27502383     5.35765404     5.36789809     5.74027227     5.82742721
         6.61606317     6.85211692     7.36646225     7.40340844     7.60144628
        15.57090853    16.09173288    16.11032158    16.38831395    21.09352088
        26.53291017    39.09550400    41.48211655    41.51767301    41.53321850
        41.56357116    41.60110467    41.62244892    44.02066069    44.08344001
        81.18362436    81.56663757    81.57613261    81.78779164   109.09264330
       138.57395114

 Hartree-Fock orbital energies, symmetry 4 ( A2 ),    2 occupied SCF orbitals

        -0.45588814    -0.37002915     0.08369869     0.10117910     0.14843079
         0.24354307     0.29701714     0.36875578     0.40913279     0.41651657
         0.45364328     0.60183922     0.62260979     0.68221551     0.73680155
         0.78706749     0.83553622     0.87800800     0.91830123     0.94453109
         0.97804623     1.02576363     1.03044155     1.09686187     1.14898564
         1.23814988     1.32240671     1.35835676     1.41415814     1.54113178
         1.60641949     1.66329255     1.67506505     1.75306438     1.83467607
         1.88917291     1.96819322     2.05396337     2.11835999     2.21087976
         2.30205626     2.32280545     2.39095644     2.58721583     2.68025955
         2.68329319     2.99331177     3.10600030     3.17852694     3.29846209
         3.36394566     3.40518125     3.50919382     3.52843107     3.57536364
         3.67831825     3.78681367     3.85666941     4.09497991     4.15959812
         4.20651941     4.26166312     4.37802820     4.54730118     4.67486841
         4.71754470     4.86802160     5.02813835     5.10373370     5.12482961
         5.18359538     5.32101839     5.40370815     5.64138316     6.64681821
         6.78590803     7.21740692     7.38183397     7.65783343    16.06930868
        16.12925772    26.65970211    39.04768877    41.45447236    41.51250823
        41.52422670    41.58310275    41.59702652    41.66289501    43.97206442
        44.11640210    81.55564143    81.59337875   138.67249851

    E(LUMO) :     0.02124591   (in symmetry 1)
  - E(HOMO) :    -0.37002915   (in symmetry 4)
  --------------------------
    gap     :     0.39127506

---> (Re)generating AOTWOINT


     ************************************************************************
     ************************** Output from HERINT **************************
     ************************************************************************


 Threshold for neglecting two-electron integrals:  1.00D-12
 HERMIT - Number of two-electron integrals written:  4264765085 ( 19.5% )
 HERMIT - Megabytes written:                          65102.267

  Time used in TWOINT     is     11 minutes 43 seconds

 2-el. integral transformation level 5: Total CPU and WALL times (sec)   16472.234   16857.573

 MP2 move   1.060912 electrons to unoccupied HF orbitals


@   Hartree-Fock total energy   :          -434.3305607577
@   + MP2 contribution          :            -2.1077323247
@   = MP2 second order energy   :          -436.4382930824

 Natural orbital occupation numbers, symmetry 1 (irrep A1 )
 Sum =    32.00020926; RHF =    32.00000000; Difference =     0.00020926

         1.99898494     1.99874090     1.99836335     1.99836028     1.99835482
         1.99835260     1.98475294     1.98168218     1.97701333     1.96994227
         1.96618732     1.96599350     1.96272506     1.95936949     1.95177244
         1.94245145     0.04302178     0.03645475     0.02597754     0.02427257
         0.01938145     0.01897498     0.01758983     0.01671418     0.01399190
         0.01317892     0.01197333     0.01023441     0.00893124     0.00833604
         0.00786063     0.00717358     0.00605041     0.00495542     0.00335600
         0.00322454     0.00303747     0.00287350     0.00246502     0.00230240
         0.00208619     0.00186341     0.00180332     0.00155640     0.00145395
         0.00141053     0.00124324     0.00112655     0.00088705     0.00084644
         0.00075416     0.00073986     0.00071972     0.00068844     0.00067780
         0.00064016     0.00061468     0.00054769     0.00054375     0.00052821
         0.00051942     0.00051054     0.00050461     0.00049820     0.00048200
         0.00047605     0.00042285     0.00041365     0.00039597     0.00039323
         0.00037799     0.00036448     0.00035497     0.00033968     0.00031684
         0.00030414     0.00029788     0.00027103     0.00025669     0.00025092
         0.00024108     0.00023490     0.00021964     0.00021568     0.00020915
         0.00020311     0.00019260     0.00018571     0.00018124     0.00017346
         0.00016861     0.00016422     0.00015132     0.00014941     0.00014153
         0.00013460     0.00012802     0.00012525     0.00011970     0.00011831
         0.00011675     0.00011244     0.00010880     0.00010478     0.00009983
         0.00009148     0.00009041     0.00008641     0.00008237     0.00007827
         0.00007509     0.00006913     0.00006395     0.00006342     0.00005883
         0.00005693     0.00005627     0.00005499     0.00005409     0.00005262
         0.00005029     0.00004996     0.00004729     0.00004563     0.00004435
         0.00004231     0.00004083     0.00003953     0.00003815     0.00003694
         0.00003628     0.00003550     0.00003292     0.00003102     0.00003059
         0.00002933     0.00002657     0.00002430     0.00002372     0.00002320
         0.00002180     0.00002141     0.00001955     0.00001917     0.00001820
         0.00001707     0.00001698     0.00001588     0.00001536     0.00001429
         0.00001423     0.00001372     0.00001356     0.00001303     0.00001274
         0.00001265     0.00001238     0.00001229     0.00001200     0.00001193
         0.00001189     0.00001177     0.00001156     0.00001148     0.00001124
         0.00001073     0.00001061     0.00001039     0.00001017     0.00000979
         0.00000975     0.00000925     0.00000902     0.00000874     0.00000860
         0.00000838     0.00000826     0.00000808     0.00000765     0.00000744
         0.00000705     0.00000696     0.00000684     0.00000660     0.00000644
[...]
   9 C   :3d1-   0.0154  -0.0132   0.0052   0.0465  -0.0364  -0.0228  -0.0371
  10 C   :3d1-  -0.0353  -0.0188   0.0220   0.1014  -0.5670  -0.0004  -0.3143
  13 C   :4f3-   0.0034   0.0012   0.0006  -0.0130   0.0366   0.0582   0.0302
  14 C   :4f1-   0.0007  -0.0011   0.0022   0.0159  -0.0483  -0.0418  -0.0307
  15 C   :2py    0.0415   0.3065  -0.2012  -0.2337  -0.0788  -0.1238   0.0049
  16 C   :2py   -0.0001   0.0024  -0.0024  -0.0033   0.0153  -0.0038  -0.0018
  17 C   :2py   -0.0229  -0.0375   0.0057  -0.0632  -0.4976   0.3786  -0.1040
  20 C   :2py    0.0108   0.0046  -0.0044  -0.4463   1.2386   0.8388  -0.6673
  25 C   :3d2-   0.0028   0.0126  -0.0192   0.0219  -0.0105  -0.0485   0.0123
  26 C   :3d1-   0.0002  -0.0066  -0.0180   0.0200   0.0119  -0.0345  -0.0160
  27 C   :3d2-  -0.0065  -0.0146   0.0161   0.0952  -0.1756  -0.5667  -0.0742
  28 C   :3d1-   0.0071   0.0120   0.0033   0.0264   0.5463  -0.5003  -0.0768
  32 C   :4f3-   0.0007   0.0010   0.0013  -0.0011   0.0099   0.0102  -0.0023
  33 C   :4f2-  -0.0033  -0.0013   0.0023   0.0110  -0.0539  -0.0473  -0.0337
  34 C   :4f1-  -0.0033   0.0005  -0.0005   0.0019  -0.0213  -0.0025  -0.0114
  35 C   :2py    0.0378   0.3070   0.2498  -0.0973  -0.1085  -0.0415  -0.1163
  36 C   :2py    0.0022   0.0020   0.0013  -0.0038   0.0213   0.0222  -0.0107
  37 C   :2py    0.0073  -0.0047   0.0047  -0.0369   0.5450  -0.2859  -0.6036
  40 C   :2py   -0.0051   0.0004   0.0088  -0.0823  -0.1641  -0.6234  -2.7369
  45 C   :3d2-   0.0006   0.0121   0.0176   0.0152  -0.0028   0.0182   0.0046
  46 C   :3d1-   0.0020   0.0071  -0.0143  -0.0201   0.0139  -0.0436   0.0041
  47 C   :3d2-  -0.0027   0.0015  -0.0068  -0.0506  -0.0552   0.4909  -0.3892
  48 C   :3d1-  -0.0012   0.0019   0.0088   0.0290   0.2929  -0.5878  -0.0005
  52 C   :4f3-  -0.0001   0.0010  -0.0013  -0.0008  -0.0009   0.0001  -0.0305
  53 C   :4f2-  -0.0024  -0.0010   0.0023   0.0034  -0.0455  -0.0151  -0.0342
  54 C   :4f1-   0.0004   0.0016   0.0009  -0.0000   0.0265  -0.0045  -0.0060
  55 C   :2py    0.0435   0.3042   0.4550   0.3245  -0.0829   0.1623   0.1390
  56 C   :2py   -0.0000   0.0014   0.0042   0.0025  -0.0069   0.0207   0.0091
  57 C   :2py   -0.0015  -0.0290   0.0270   0.2085   0.0360  -0.9878   1.0505
  60 C   :2py    0.0084   0.0035   0.0179   0.4572   1.2135  -1.0588   4.2679
  63 C   :3d1-   0.0018   0.0134   0.0151  -0.0080  -0.0113   0.0025  -0.0240
  64 C   :3d1-  -0.0056  -0.0087   0.0031   0.0232  -0.2678  -0.0425   0.4394
  67 C   :4f3-  -0.0004  -0.0003   0.0003   0.0030  -0.0282  -0.0351   0.0100
  68 C   :4f1-   0.0011   0.0023  -0.0012  -0.0015   0.0384   0.0119   0.0692
  69 N   :2py    0.6151  -0.0850  -0.0305   0.4509   0.0238   0.0467  -0.3906
  70 N   :2py    0.0013  -0.0004  -0.0008   0.0096  -0.0043  -0.0060  -0.0193
  71 N   :2py   -0.0733   0.0207  -0.0029   0.0953   0.3333  -0.2576  -0.0205
  74 N   :2py    0.0396  -0.0089   0.0007   0.2177   0.9931  -1.2755  -1.1670
  77 N   :3d1-   0.0124  -0.0136   0.0230  -0.0275  -0.0119  -0.0353  -0.0020
  78 N   :3d1-  -0.0260  -0.0039   0.0121   0.0267  -0.1154  -0.0848  -0.1003
  81 N   :4f3-   0.0015  -0.0003   0.0025  -0.0024   0.0032  -0.0390  -0.0007
  82 N   :4f1-  -0.0019   0.0026  -0.0036  -0.0032   0.0233   0.0127   0.0090
  83 O   :2py    0.4137  -0.1171   0.1140  -0.3204  -0.0448  -0.1131   0.1771
  85 O   :2py    0.0049  -0.0071   0.0094  -0.0906  -0.0471   0.0839   0.0730
  88 O   :2py   -0.0025   0.0006   0.0093  -0.2253  -0.1574   0.3874   0.4277
  93 O   :3d2-   0.0207  -0.0045   0.0016   0.0066  -0.0027   0.0027  -0.0108
  94 O   :3d1-  -0.0117   0.0018   0.0004  -0.0047  -0.0000  -0.0028   0.0050
  95 O   :3d2-   0.0128  -0.0030   0.0003  -0.0089  -0.0203   0.0665   0.0204
  96 O   :3d1-  -0.0066   0.0025  -0.0005   0.0072   0.0122  -0.0541  -0.0065
 104 H   :2py   -0.0001   0.0059  -0.0054  -0.0034  -0.0182  -0.0403  -0.0128
 105 H   :2py   -0.0051  -0.0153   0.0067   0.0624  -0.4037  -0.4412   0.0177
 108 H   :3d2-  -0.0005   0.0002  -0.0002   0.0058  -0.0363  -0.0328   0.0105
 109 H   :3d1-   0.0001  -0.0009   0.0017  -0.0047  -0.0043   0.0479   0.0126
 111 H   :2py    0.0017   0.0072   0.0071  -0.0059   0.0240   0.0080   0.0267
 112 H   :2py   -0.0034  -0.0017   0.0035  -0.0202  -0.0731   0.1021  -0.0200
 115 H   :3d2-   0.0004   0.0012   0.0009   0.0014   0.0062  -0.0146   0.0383
 116 H   :3d1-   0.0001   0.0008   0.0013  -0.0041  -0.0130   0.0378  -0.0073
 118 H   :2py    0.0002   0.0058   0.0142   0.0124  -0.0156   0.0105  -0.0531
 119 H   :2py   -0.0063  -0.0065   0.0078   0.0262  -0.3182   0.1654  -0.0624
 121 H   :3d1-  -0.0006   0.0008   0.0032  -0.0006  -0.0277   0.0186  -0.0523

    Orbital         8        9       10       11       12       13
   1 C   :2py   -0.1144  -0.3372   0.0443   0.0903  -0.2644   0.2685
   2 C   :2py    0.0051  -0.0069  -0.0281   0.0491  -0.0108  -0.0011
   3 C   :2py    1.5570  -0.2324  -0.6334  -1.0266  -1.1444  -0.6421
   6 C   :2py   15.3431  -1.4277   5.7295  -1.8647  -7.5852 -11.8850
   8 C   :3d1-   0.0036   0.0030  -0.0102   0.0005  -0.0010  -0.0059
   9 C   :3d1-  -0.0455   0.0470   0.1451  -0.0578  -0.0558   0.0469
  10 C   :3d1-  -0.3113   0.3541   2.1474  -0.3294  -1.4315  -0.6052
  13 C   :4f3-   0.0057   0.0125  -0.1654   0.0757  -0.0081   0.0404
  14 C   :4f1-   0.0693   0.0003   0.1839  -0.1834  -0.0403  -0.1052
  15 C   :2py    0.0145   0.0851  -0.0128  -0.0418   0.0917  -0.2361
  16 C   :2py   -0.0202   0.0128   0.0435   0.0187  -0.0077   0.0185
  17 C   :2py   -1.2272   0.7361   1.3767   0.5641  -1.4125   0.7408
  20 C   :2py  -11.1837   3.4785  -1.3338   1.5619   1.5893   7.5736
  23 C   :3d2-  -0.0014  -0.0092   0.0023   0.0073  -0.0044   0.0103
  25 C   :3d2-   0.0007  -0.0126   0.0566  -0.0406   0.0145   0.0041
  26 C   :3d1-  -0.0419  -0.0326   0.0753  -0.0459   0.0332   0.0322
  27 C   :3d2-  -0.5454   0.1820   0.8516   0.4556   0.1700  -0.1552
  28 C   :3d1-   0.0584  -0.4450  -0.5672   0.0660   1.1114   0.3000
  32 C   :4f3-  -0.0729   0.0223   0.0034   0.0514  -0.0228   0.0984
  33 C   :4f2-   0.0547  -0.0308   0.1212  -0.1301   0.0575  -0.0916
  34 C   :4f1-  -0.0067   0.0004   0.0624  -0.0114  -0.0144  -0.0172
  35 C   :2py    0.0785   0.1832  -0.0726   0.1136  -0.0636   0.2156
  36 C   :2py    0.0174  -0.0178  -0.0052   0.0208   0.0198   0.0035
  37 C   :2py    0.8570  -1.4137  -0.7295   0.3381   1.9757  -0.4768
  40 C   :2py    7.9171  -6.2225  -0.0517  -0.8787   0.9387  -5.2170
  43 C   :3d2-  -0.0036  -0.0053   0.0047   0.0104   0.0125  -0.0009
  45 C   :3d2-  -0.0195  -0.0243  -0.0082  -0.0990  -0.0558  -0.0017
  46 C   :3d1-   0.0079   0.0284  -0.0139  -0.0468   0.0186   0.0090
  47 C   :3d2-   0.2610  -0.7667  -0.3806  -0.8077  -0.5290  -0.2656
  48 C   :3d1-   0.2659  -0.2230  -0.3325  -0.1068   0.7580  -0.1963
  52 C   :4f3-   0.0558  -0.0696   0.0149   0.0241   0.0621  -0.0874
  53 C   :4f2-   0.0731  -0.0436   0.1024  -0.0393   0.0670  -0.1089
  54 C   :4f1-  -0.0159  -0.0133  -0.0262  -0.0067   0.0372   0.0537
  55 C   :2py   -0.1536  -0.2939   0.0693  -0.0336   0.2409  -0.2039
  56 C   :2py   -0.0038   0.0284   0.0518   0.0211   0.0059   0.0047
  57 C   :2py   -0.6183   1.7305   0.7482   1.9068   1.2411   0.5144
  60 C   :2py   -7.1676   7.3148  -0.2121   1.7164   0.1919   5.0834
  62 C   :3d1-   0.0041   0.0032   0.0021   0.0135   0.0089   0.0078
  63 C   :3d1-  -0.0056   0.0018   0.0043  -0.0852  -0.0716   0.0336
  64 C   :3d1-  -0.3672   0.9914   0.3304  -0.4351  -0.7679   0.7536
  67 C   :4f3-   0.0339   0.0282   0.0641   0.0170   0.0237  -0.0622
  68 C   :4f1-  -0.0609   0.1068  -0.0529   0.1111   0.0067   0.1320
  69 N   :2py    0.0899   0.4025  -0.1227   0.1229  -0.0025  -0.2546
  70 N   :2py   -0.0082   0.0081   0.0385  -0.0151  -0.0021   0.0084
  71 N   :2py    0.0245   0.1086  -0.4997   0.0367   1.1339   0.5907
  74 N   :2py   -3.3257  -0.4618  -5.7361  -2.8291   8.9652   7.7787
  77 N   :3d1-   0.0143   0.0009   0.0545  -0.0637   0.0236  -0.0052
  78 N   :3d1-   0.2275   0.1033   0.8554  -0.5417  -0.0750  -0.0259
  81 N   :4f3-   0.0062   0.0036   0.0593  -0.0378   0.0479   0.0179
  82 N   :4f1-  -0.0089  -0.0105  -0.0694   0.0366   0.0245   0.0199
  83 O   :2py   -0.0482  -0.1915   0.1958  -0.0959  -0.0083   0.1456
  84 O   :2py    0.0021  -0.0038  -0.0020   0.0140  -0.0159  -0.0135
  85 O   :2py   -0.0755  -0.0843  -0.1371   0.0771  -0.1673   0.0081
  88 O   :2py    0.4873  -0.1640   0.7780   1.8399  -2.9066  -2.5469
  95 O   :3d2-  -0.0226  -0.0109  -0.1224   0.1705  -0.1779  -0.1473
  96 O   :3d1-  -0.0132  -0.0018  -0.0008  -0.0489   0.1134   0.0697
 100 O   :4f3-  -0.0053  -0.0001  -0.0072   0.0153  -0.0194  -0.0110
 101 O   :4f2-  -0.0008   0.0010   0.0062  -0.0098   0.0160   0.0115
 104 H   :2py    0.0772  -0.0277   0.0341  -0.1016   0.0762  -0.1341
 105 H   :2py    0.2994   0.0269   0.4333  -0.4612   0.2201  -1.3528
 108 H   :3d2-   0.0801  -0.0110  -0.0030  -0.0993   0.0468  -0.1124
 109 H   :3d1-  -0.0323   0.0353  -0.0047   0.0294  -0.0429   0.0908
 111 H   :2py   -0.0724   0.0764  -0.0580  -0.0447  -0.1338   0.1138
 112 H   :2py   -0.2092   0.0569  -0.5004  -1.2360  -1.3725   0.3192
 115 H   :3d2-  -0.0519   0.0651  -0.0573  -0.0972  -0.1375   0.0573
 116 H   :3d1-  -0.0462   0.0126  -0.0169  -0.0790  -0.1038   0.0483
 118 H   :2py    0.0308  -0.1051   0.0248  -0.1682  -0.0566  -0.0909
 119 H   :2py   -0.0079  -0.0943   0.0038  -1.9064  -1.2886  -0.0927
 121 H   :3d1-   0.0314  -0.0864  -0.0146  -0.2380  -0.1253  -0.0568

 Molecular orbitals for symmetry species 4  (A2 )
 ------------------------------------------------

    Orbital         1        2        3        4        5        6        7
   2 C   :3d2-  -0.0019  -0.0130   0.0156   0.0043   0.0097  -0.0008  -0.0087
   3 C   :3d2-  -0.0087  -0.0277   0.0540  -0.0538   0.0393   0.0510   0.0463
   4 C   :3d2-  -0.0403   0.0350   0.1290  -1.6162   1.2342  -1.3585   1.9084
   6 C   :4f2-   0.0028  -0.0050   0.0069   0.0249  -0.0280  -0.1395  -0.0395
   7 C   :2py    0.0274   0.4089  -0.3474  -0.0112  -0.2352   0.0033   0.1090
   8 C   :2py   -0.0009   0.0046  -0.0128   0.0091   0.0209   0.0427   0.0277
   9 C   :2py   -0.0235   0.0348  -0.1708  -1.2003   1.4384  -0.0543   2.5023
  12 C   :2py   -0.0131   0.0200  -1.2621  -1.2319   3.9055  -2.3713   0.5752
  17 C   :3d2-  -0.0017   0.0066   0.0094  -0.0244  -0.0248   0.0721  -0.0507
  18 C   :3d1-  -0.0007  -0.0182  -0.0227  -0.0224  -0.0128   0.0126   0.0640
  19 C   :3d2-  -0.0084   0.0112  -0.0432  -0.3471   0.6154  -0.4631  -0.0589
  20 C   :3d1-  -0.0036   0.0129   0.1411  -0.7323  -0.0584  -0.8186   1.3723
  24 C   :4f3-  -0.0017   0.0006  -0.0110  -0.0100   0.0623   0.0258   0.0696
  25 C   :4f2-  -0.0010   0.0006   0.0209  -0.0172  -0.0511   0.0283  -0.0449
  26 C   :4f1-   0.0030  -0.0019   0.0032  -0.0177   0.0238  -0.0070   0.0171
  27 C   :2py    0.0191   0.4110   0.3121   0.1591   0.2296  -0.0048   0.1307
  28 C   :2py   -0.0016   0.0036   0.0016   0.0149  -0.0070  -0.0070   0.0336
  29 C   :2py    0.0102   0.0181   0.4411  -0.6164  -1.0438  -0.2267   2.4914
  32 C   :2py    0.0092   0.0148   1.6283  -0.8172  -3.6943   1.5212   1.3248
  37 C   :3d2-   0.0008   0.0044  -0.0037  -0.0157   0.0324  -0.0180  -0.0773
  38 C   :3d1-   0.0002   0.0181  -0.0301   0.0371  -0.0250   0.0138  -0.0787
  39 C   :3d2-   0.0008  -0.0013   0.1046   0.0105  -0.5259   0.4322  -0.7374
  40 C   :3d1-  -0.0083   0.0041  -0.0119   0.1311  -0.1484  -0.7620  -0.8424
  44 C   :4f3-   0.0001   0.0004   0.0132  -0.0134  -0.0523  -0.0220   0.0883
  45 C   :4f2-  -0.0011  -0.0001   0.0123   0.0076  -0.0428   0.0188   0.0391
  46 C   :4f1-   0.0003  -0.0017   0.0038   0.0018  -0.0390   0.0062   0.0138
  48 C   :3d2-  -0.0006  -0.0123  -0.0148  -0.0042  -0.0087   0.0011  -0.0091
  49 C   :3d2-   0.0004  -0.0279  -0.0268  -0.0615  -0.0319  -0.0466   0.0542
  50 C   :3d2-   0.0127  -0.0012   0.1905  -0.4954  -0.7107   0.7569   1.0505
  52 C   :4f2-  -0.0003   0.0028   0.0016  -0.0216   0.0162  -0.0313   0.0153
  54 N   :3d2-  -0.0207   0.0011  -0.0002  -0.0011   0.0014  -0.0006  -0.0009
  55 N   :3d2-  -0.0580   0.0036   0.0010   0.0125  -0.0130   0.1199   0.0027
  56 N   :3d2-   0.0175  -0.0072   0.0186   0.3346  -0.3849   1.3256  -0.1089
  58 N   :4f2-  -0.0031   0.0002   0.0025   0.0233  -0.0384   0.0310  -0.0196
  59 O   :2py    0.6393  -0.0502   0.0470   0.0376  -0.0180  -0.1200   0.0198
  60 O   :2py    0.0054  -0.0001   0.0006  -0.0056   0.0048  -0.0157  -0.0034
  61 O   :2py    0.0636  -0.0090   0.0212   0.1673  -0.1938   0.5520  -0.0210
  64 O   :2py    0.0438  -0.0065   0.0771   0.0590  -0.1686   2.0660   0.1651
  69 O   :3d2-   0.0152  -0.0011   0.0020   0.0077  -0.0091  -0.0075  -0.0002
  70 O   :3d1-  -0.0095   0.0003   0.0012  -0.0028   0.0043   0.0131   0.0059
  71 O   :3d2-   0.0157  -0.0020   0.0070   0.0520  -0.0717   0.3205  -0.0195
  72 O   :3d1-  -0.0142   0.0018  -0.0015  -0.0232   0.0268  -0.2705  -0.0231
  76 O   :4f3-   0.0020  -0.0002   0.0009   0.0045  -0.0068   0.0278  -0.0007
  77 O   :4f2-  -0.0023   0.0003  -0.0007  -0.0053   0.0065  -0.0362   0.0011
  80 H   :2py    0.0016   0.0117   0.0028   0.0097  -0.0886   0.0196  -0.1564
  81 H   :2py   -0.0017   0.0035  -0.0367   0.2591  -0.1654  -0.0103  -1.9479
  84 H   :3d2-  -0.0007   0.0021   0.0060   0.0393  -0.0583   0.0196  -0.2044
  85 H   :3d1-  -0.0016  -0.0013  -0.0123   0.0141   0.0465   0.0008   0.0824
  87 H   :2py    0.0006   0.0124  -0.0009   0.0130   0.0711   0.0084  -0.1724
  88 H   :2py   -0.0040   0.0068  -0.0183   0.2002   0.1326   0.0296  -2.3449
  91 H   :3d2-  -0.0001   0.0026  -0.0136   0.0251   0.0469  -0.0087  -0.2176
  92 H   :3d1-   0.0002   0.0007  -0.0071  -0.0023   0.0372   0.0279  -0.1135
  94 H   :3d2-  -0.0008   0.0013  -0.0192   0.0295   0.0606  -0.0271  -0.0333

    Orbital         8        9       10       11       12
   2 C   :3d2-   0.0066  -0.0096   0.0257   0.0047   0.0029
   3 C   :3d2-   0.0364   0.2828  -0.1715   0.0463   0.1564
   4 C   :3d2-  -2.3232   6.1579  -3.0673   0.8006  -7.3453
   5 C   :4f2-  -0.0005  -0.0011   0.0041   0.0098   0.0107
   6 C   :4f2-   0.0200  -0.2008  -0.0203  -0.0915  -0.0367
   7 C   :2py   -0.1797   0.1721  -0.1332   0.1677  -0.0471
   8 C   :2py   -0.0797  -0.0543  -0.0053   0.0242   0.0661
   9 C   :2py   -2.7136   2.6687  -3.6184   2.8049  -3.0117
  12 C   :2py   -3.1451   0.3332  -1.4590   0.1607  -0.4641
  15 C   :3d2-  -0.0051  -0.0115  -0.0047  -0.0046   0.0052
  16 C   :3d1-   0.0017  -0.0056  -0.0200  -0.0057  -0.0056
  17 C   :3d2-   0.0761   0.3228  -0.0530   0.0112   0.1317
  18 C   :3d1-  -0.0976  -0.0350   0.1883  -0.0731  -0.1324
  19 C   :3d2-   0.9931   2.8958  -3.2031   1.8816  -3.3656
  20 C   :3d1-  -1.6207   1.6765   0.2103  -2.8920  -5.3520
  22 C   :4f2-   0.0001  -0.0023   0.0017   0.0077  -0.0119
  24 C   :4f3-  -0.1199  -0.0234  -0.0557   0.0778  -0.0493
  25 C   :4f2-   0.1054   0.1625  -0.0809  -0.0491   0.2264
  26 C   :4f1-  -0.0014  -0.0078  -0.1348   0.0937   0.0252
  27 C   :2py    0.1207   0.1863   0.1081  -0.1918   0.0506
  28 C   :2py    0.0749  -0.0274   0.0223   0.0047  -0.0301
  29 C   :2py    1.6412   1.3217   2.9047  -3.2007  -3.0073
  32 C   :2py    2.9077   0.2716   1.2358  -0.3173  -0.4560
  35 C   :3d2-   0.0054  -0.0079  -0.0063  -0.0051   0.0182
  36 C   :3d1-  -0.0009   0.0105   0.0024   0.0179   0.0054
  37 C   :3d2-  -0.1417   0.2574   0.0124  -0.0981   0.1158
  38 C   :3d1-  -0.0774  -0.0457   0.1644  -0.0924   0.0209
  39 C   :3d2-  -1.5875   0.7705   2.2471  -3.0045   6.5834
  40 C   :3d1-  -1.2187   0.2638   1.1729  -1.8718  -1.7912
  44 C   :4f3-   0.1070  -0.0040   0.0279  -0.0998  -0.0105
  45 C   :4f2-   0.1326  -0.1196  -0.0271   0.0499   0.0712
  46 C   :4f1-   0.0228  -0.0308   0.1920  -0.0682  -0.0760
  48 C   :3d2-  -0.0009  -0.0066   0.0045   0.0276  -0.0094
  49 C   :3d2-  -0.1045   0.2273   0.0897  -0.2125  -0.0422
  50 C   :3d2-   0.8264   1.8572   2.4897  -0.8186   3.0322
  51 C   :4f2-  -0.0017  -0.0045  -0.0105   0.0032  -0.0075
  52 C   :4f2-  -0.0568   0.1656  -0.0004  -0.0713   0.0647
  55 N   :3d2-   0.0212  -0.0632   0.0453  -0.0070   0.0849
  56 N   :3d2-   0.5703  -1.4620   0.8496  -0.2998   1.7023
  58 N   :4f2-   0.0430  -0.1226   0.0347  -0.0605   0.0972
  59 O   :2py   -0.0288   0.0120  -0.0004   0.0844   0.1032
  60 O   :2py   -0.0072   0.0245  -0.0108   0.0072  -0.0147
  61 O   :2py    0.2440  -0.7196   0.3509  -0.1494   0.8171
  64 O   :2py    0.1709  -0.2758   0.5335   0.4651   0.2700
  69 O   :3d2-   0.0033  -0.0281   0.0075  -0.0132   0.0163
  71 O   :3d2-   0.1026  -0.2481   0.1390  -0.0483   0.3379
  72 O   :3d1-  -0.0279   0.1606  -0.0583   0.0370  -0.1221
  76 O   :4f3-   0.0064  -0.0253   0.0115  -0.0077   0.0267
  77 O   :4f2-  -0.0095   0.0221  -0.0118   0.0063  -0.0256
  79 H   :2py   -0.0099  -0.0040  -0.0041   0.0027  -0.0151
  80 H   :2py    0.2148   0.1728  -0.0147  -0.0543   0.1956
  81 H   :2py    3.1307   2.4514  -2.1853   1.8377   0.7481
  84 H   :3d2-   0.2404   0.1806  -0.0639   0.0413   0.2579
  85 H   :3d1-  -0.1462  -0.1920   0.0609   0.0419  -0.0040
  86 H   :2py    0.0093  -0.0058   0.0030  -0.0019  -0.0218
  87 H   :2py   -0.2198   0.1341  -0.0063  -0.0094   0.1078
  88 H   :2py   -3.4379   1.5293   1.5708  -2.7539   4.3259
  91 H   :3d2-  -0.2582   0.1544   0.0352  -0.1083   0.2306
  92 H   :3d1-  -0.1541   0.1186   0.0197  -0.0187   0.1881
  94 H   :3d2-  -0.0558  -0.0689  -0.1061   0.0654  -0.0292

  Total CPU  time used in SIRIUS :  15 hours 10 minutes 52 seconds
  Total wall time used in SIRIUS :  15 hours 25 minutes 11 seconds

 
     Date and time (Linux)  : Fri Jul 12 05:48:02 2019
     Host name              : Lab2-333-NPs                            

 NOTE:    1 warnings have been issued.
 Check output, result, and error files for "WARNING".


                     .---------------------------------------.
                     | End of Wave Function Section (SIRIUS) |
                     `---------------------------------------'



                 .------------------------------------------------.
                 | Starting in Dynamic Property Section (RESPONS) |
                 `------------------------------------------------'


 ------------------------------------------------------------------------------
  RESPONSE  -  an MCSCF, MC-srDFT, DFT, and SOPPA response property program
 ------------------------------------------------------------------------------


 -------- OUTPUT FROM RESPONSE INPUT PROCESSING --------




 Variable settings for Cubic Response calculation
 ------------------------------------------------

 Second hyperpolarizability calculation :  CRCAL= T

  1 B-frequencies  0.000000D+00
  1 C-frequencies  0.000000D+00
  1 D-frequencies  0.000000D+00

 Print level                                    : IPRCR  =   2
 Threshold for non-zero norm of property vectors: THRNRM = 1.000D-09
 Threshold for convergence of lin. resp. eq.s   : THCLR  = 1.000D-03
 Maximum number of iterations in LR solver      : MAXITL =  60
 Direct one-index transformation                : DIROIT = T

    1 A OPERATORS OF SYMMETRY NO:    1 AND LABELS:

          ZDIPLEN 

    1 A OPERATORS OF SYMMETRY NO:    2 AND LABELS:

          XDIPLEN 

    1 A OPERATORS OF SYMMETRY NO:    3 AND LABELS:

          YDIPLEN 

    1 B OPERATORS OF SYMMETRY NO:    1 AND LABELS:

          ZDIPLEN 

    1 B OPERATORS OF SYMMETRY NO:    2 AND LABELS:

          XDIPLEN 

    1 B OPERATORS OF SYMMETRY NO:    3 AND LABELS:

          YDIPLEN 

    1 C OPERATORS OF SYMMETRY NO:    1 AND LABELS:

          ZDIPLEN 

    1 C OPERATORS OF SYMMETRY NO:    2 AND LABELS:

          XDIPLEN 

    1 C OPERATORS OF SYMMETRY NO:    3 AND LABELS:

          YDIPLEN 

    1 D OPERATORS OF SYMMETRY NO:    1 AND LABELS:

          ZDIPLEN 

    1 D OPERATORS OF SYMMETRY NO:    2 AND LABELS:

          XDIPLEN 

    1 D OPERATORS OF SYMMETRY NO:    3 AND LABELS:

          YDIPLEN 
