

     ************************************************************************
     *************** Dalton - An Electronic Structure Program ***************
     ************************************************************************

    This is output from DALTON release Dalton2018.1 (2019)
         ( Web site: http://daltonprogram.org )

   ----------------------------------------------------------------------------

    NOTE:
     
    Dalton is an experimental code for the evaluation of molecular
    properties using (MC)SCF, DFT, CI, and CC wave functions.
    The authors accept no responsibility for the performance of
    the code or for the correctness of the results.
     
    The code (in whole or part) is provided under a licence and
    is not to be reproduced for further distribution without
    the written permission of the authors or their representatives.
     
    See the home page "http://daltonprogram.org" for further information.
     
    If results obtained with this code are published,
    the appropriate citations would be both of:
     
       K. Aidas, C. Angeli, K. L. Bak, V. Bakken, R. Bast,
       L. Boman, O. Christiansen, R. Cimiraglia, S. Coriani,
       P. Dahle, E. K. Dalskov, U. Ekstroem,
       T. Enevoldsen, J. J. Eriksen, P. Ettenhuber, B. Fernandez,
       L. Ferrighi, H. Fliegl, L. Frediani, K. Hald, A. Halkier,
       C. Haettig, H. Heiberg, T. Helgaker, A. C. Hennum,
       H. Hettema, E. Hjertenaes, S. Hoest, I.-M. Hoeyvik,
       M. F. Iozzi, B. Jansik, H. J. Aa. Jensen, D. Jonsson,
       P. Joergensen, J. Kauczor, S. Kirpekar,
       T. Kjaergaard, W. Klopper, S. Knecht, R. Kobayashi, H. Koch,
       J. Kongsted, A. Krapp, K. Kristensen, A. Ligabue,
       O. B. Lutnaes, J. I. Melo, K. V. Mikkelsen, R. H. Myhre,
       C. Neiss, C. B. Nielsen, P. Norman, J. Olsen,
       J. M. H. Olsen, A. Osted, M. J. Packer, F. Pawlowski,
       T. B. Pedersen, P. F. Provasi, S. Reine, Z. Rinkevicius,
       T. A. Ruden, K. Ruud, V. Rybkin, P. Salek, C. C. M. Samson,
       A. Sanchez de Meras, T. Saue, S. P. A. Sauer,
       B. Schimmelpfennig, K. Sneskov, A. H. Steindal,
       K. O. Sylvester-Hvid, P. R. Taylor, A. M. Teale,
       E. I. Tellgren, D. P. Tew, A. J. Thorvaldsen, L. Thoegersen,
       O. Vahtras, M. A. Watson, D. J. D. Wilson, M. Ziolkowski
       and H. Agren,
       "The Dalton quantum chemistry program system",
       WIREs Comput. Mol. Sci. 2014, 4:269–284 (doi: 10.1002/wcms.1172)
     
    and
     
       Dalton, a molecular electronic structure program,
       Release Dalton2018.1 (2019), see http://daltonprogram.org
   ----------------------------------------------------------------------------

    Authors in alphabetical order (major contribution(s) in parenthesis):

  Kestutis Aidas,           Vilnius University,           Lithuania   (QM/MM)
  Celestino Angeli,         University of Ferrara,        Italy       (NEVPT2)
  Keld L. Bak,              UNI-C,                        Denmark     (AOSOPPA, non-adiabatic coupling, magnetic properties)
  Vebjoern Bakken,          University of Oslo,           Norway      (DALTON; geometry optimizer, symmetry detection)
  Radovan Bast,             UiT The Arctic U. of Norway,  Norway      (DALTON installation and execution frameworks)
  Pablo Baudin,             University of Valencia,       Spain       (Cholesky excitation energies)
  Linus Boman,              NTNU,                         Norway      (Cholesky decomposition and subsystems)
  Ove Christiansen,         Aarhus University,            Denmark     (CC module)
  Renzo Cimiraglia,         University of Ferrara,        Italy       (NEVPT2)
  Sonia Coriani,            Technical Univ. of Denmark,   Denmark     (CC module, MCD in RESPONS)
  Janusz Cukras,            University of Trieste,        Italy       (MChD in RESPONS)
  Paal Dahle,               University of Oslo,           Norway      (Parallelization)
  Erik K. Dalskov,          UNI-C,                        Denmark     (SOPPA)
  Thomas Enevoldsen,        Univ. of Southern Denmark,    Denmark     (SOPPA)
  Janus J. Eriksen,         Aarhus University,            Denmark     (Polarizable embedding model, TDA)
  Rasmus Faber,             University of Copenhagen,     Denmark     (Vib.avg. NMR with SOPPA, parallel AO-SOPPA)
  Tobias Fahleson,          KTH Stockholm,                Sweden      (Damped cubic response)
  Berta Fernandez,          U. of Santiago de Compostela, Spain       (doublet spin, ESR in RESPONS)
  Lara Ferrighi,            Aarhus University,            Denmark     (PCM Cubic response)
  Heike Fliegl,             University of Oslo,           Norway      (CCSD(R12))
  Luca Frediani,            UiT The Arctic U. of Norway,  Norway      (PCM)
  Bin Gao,                  UiT The Arctic U. of Norway,  Norway      (Gen1Int library)
  Christof Haettig,         Ruhr-University Bochum,       Germany     (CC module)
  Kasper Hald,              Aarhus University,            Denmark     (CC module)
  Asger Halkier,            Aarhus University,            Denmark     (CC module)
  Frederik Beyer Hansen,    University of Copenhagen,     Denmark     (Parallel AO-SOPPA)
  Erik D. Hedegaard,        Univ. of Southern Denmark,    Denmark     (Polarizable embedding model, QM/MM)
  Hanne Heiberg,            University of Oslo,           Norway      (geometry analysis, selected one-electron integrals)
  Trygve Helgaker,          University of Oslo,           Norway      (DALTON; ABACUS, ERI, DFT modules, London, and much more)
  Alf Christian Hennum,     University of Oslo,           Norway      (Parity violation)
  Hinne Hettema,            University of Auckland,       New Zealand (quadratic response in RESPONS; SIRIUS supersymmetry)
  Eirik Hjertenaes,         NTNU,                         Norway      (Cholesky decomposition)
  Pi A. B. Haase,           University of Copenhagen,     Denmark     (Triplet AO-SOPPA)
  Maria Francesca Iozzi,    University of Oslo,           Norway      (RPA)
  Christoph Jacob           TU Braunschweig               Germany     (Frozen density embedding model)
  Brano Jansik              Technical Univ. of Ostrava    Czech Rep.  (DFT cubic response)
  Hans Joergen Aa. Jensen,  Univ. of Southern Denmark,    Denmark     (DALTON; SIRIUS, RESPONS, ABACUS modules, London, and much more)
  Dan Jonsson,              UiT The Arctic U. of Norway,  Norway      (cubic response in RESPONS module)
  Poul Joergensen,          Aarhus University,            Denmark     (RESPONS, ABACUS, and CC modules)
  Maciej Kaminski,          University of Warsaw,         Poland      (CPPh in RESPONS)
  Joanna Kauczor,           Linkoeping University,        Sweden      (Complex polarization propagator (CPP) module)
  Sheela Kirpekar,          Univ. of Southern Denmark,    Denmark     (Mass-velocity & Darwin integrals)
  Wim Klopper,              KIT Karlsruhe,                Germany     (R12 code in CC, SIRIUS, and ABACUS modules)
  Stefan Knecht,            ETH Zurich,                   Switzerland (Parallel CI and MCSCF)
  Rika Kobayashi,           Australian National Univ.,    Australia   (DIIS in CC, London in MCSCF)
  Henrik Koch,              NTNU,                         Norway      (CC module, Cholesky decomposition)
  Jacob Kongsted,           Univ. of Southern Denmark,    Denmark     (Polarizable embedding model, QM/MM)
  Andrea Ligabue,           University of Modena,         Italy       (CTOCD, AOSOPPA)
  Nanna H. List             Univ. of Southern Denmark,    Denmark     (Polarizable embedding model)
  Ola B. Lutnaes,           University of Oslo,           Norway      (DFT Hessian)
  Juan I. Melo,             University of Buenos Aires,   Argentina   (LRESC, Relativistic Effects on NMR Shieldings)
  Kurt V. Mikkelsen,        University of Copenhagen,     Denmark     (MC-SCRF and QM/MM)
  Rolf H. Myhre,            NTNU,                         Norway      (Subsystems and CC3)
  Christian Neiss,          Univ. Erlangen-Nuernberg,     Germany     (CCSD(R12))
  Christian B. Nielsen,     University of Copenhagen,     Denmark     (QM/MM)
  Patrick Norman,           KTH Stockholm,                Sweden      (Cubic response and complex frequency response in RESPONS)
  Jeppe Olsen,              Aarhus University,            Denmark     (SIRIUS CI/density modules)
  Jogvan Magnus H. Olsen,   Univ. of Southern Denmark,    Denmark     (Polarizable embedding model, QM/MM)
  Anders Osted,             Copenhagen University,        Denmark     (QM/MM)
  Martin J. Packer,         University of Sheffield,      UK          (SOPPA)
  Filip Pawlowski,          Kazimierz Wielki University,  Poland      (CC3)
  Morten N. Pedersen,       Univ. of Southern Denmark,    Denmark     (Polarizable embedding model)
  Thomas B. Pedersen,       University of Oslo,           Norway      (Cholesky decomposition)
  Patricio F. Provasi,      University of Northeastern,   Argentina   (Analysis of coupling constants in localized orbitals)
  Zilvinas Rinkevicius,     KTH Stockholm,                Sweden      (open-shell DFT, ESR)
  Elias Rudberg,            KTH Stockholm,                Sweden      (DFT grid and basis info)
  Torgeir A. Ruden,         University of Oslo,           Norway      (Numerical derivatives in ABACUS)
  Kenneth Ruud,             UiT The Arctic U. of Norway,  Norway      (DALTON; ABACUS magnetic properties and much more)
  Pawel Salek,              KTH Stockholm,                Sweden      (DALTON; DFT code)
  Claire C. M. Samson       University of Karlsruhe       Germany     (Boys localization, r12 integrals in ERI)
  Alfredo Sanchez de Meras, University of Valencia,       Spain       (CC module, Cholesky decomposition)
  Trond Saue,               Paul Sabatier University,     France      (direct Fock matrix construction)
  Stephan P. A. Sauer,      University of Copenhagen,     Denmark     (SOPPA(CCSD), SOPPA prop., AOSOPPA, vibrational g-factors)
  Andre S. P. Gomes,        CNRS/Universite de Lille,     France      (Frozen density embedding model)
  Bernd Schimmelpfennig,    Forschungszentrum Karlsruhe,  Germany     (AMFI module)
  Kristian Sneskov,         Aarhus University,            Denmark     (Polarizable embedding model, QM/MM)
  Arnfinn H. Steindal,      UiT The Arctic U. of Norway,  Norway      (parallel QM/MM, Polarizable embedding model)
  Casper Steinmann,         Univ. of Southern Denmark,    Denmark     (QFIT, Polarizable embedding model)
  K. O. Sylvester-Hvid,     University of Copenhagen,     Denmark     (MC-SCRF)
  Peter R. Taylor,          VLSCI/Univ. of Melbourne,     Australia   (Symmetry handling ABACUS, integral transformation)
  Andrew M. Teale,          University of Nottingham,     England     (DFT-AC, DFT-D)
  David P. Tew,             University of Bristol,        England     (CCSD(R12))
  Olav Vahtras,             KTH Stockholm,                Sweden      (triplet response, spin-orbit, ESR, TDDFT, open-shell DFT)
  Lucas Visscher,           Vrije Universiteit Amsterdam, Netherlands (Frozen density embedding model)
  David J. Wilson,          La Trobe University,          Australia   (DFT Hessian and DFT magnetizabilities)
  Hans Agren,               KTH Stockholm,                Sweden      (SIRIUS module, RESPONS, MC-SCRF solvation model)
 --------------------------------------------------------------------------------

     Date and time (Linux)  : Tue Jun 25 10:42:18 2019
     Host name              : Lab2-333-NPs                            

 * Work memory size             :  1536000000 = 11.444 gigabytes.

 * Directories for basis set searches:
   1) /home/lab333/dalton/build_2018_atlas
   2) /home/lab333/dalton/build_2018_atlas/basis


Compilation information
-----------------------

 Who compiled             | lab333
 Host                     | Lab2-333-NPs
 System                   | Linux-4.4.0-43-Microsoft
 CMake generator          | Unix Makefiles
 Processor                | x86_64
 64-bit integers          | OFF
 MPI                      | OFF
 Fortran compiler         | /usr/bin/gfortran
 Fortran compiler version | GNU Fortran (Ubuntu 7.3.0-27ubuntu1~18.04) 7.3.0
 C compiler               | /usr/bin/gcc
 C compiler version       | gcc (Ubuntu 7.3.0-27ubuntu1~18.04) 7.3.0
 C++ compiler             | /usr/bin/g++
 C++ compiler version     | g++ (Ubuntu 7.3.0-27ubuntu1~18.04) 7.3.0
 BLAS                     | /usr/lib/x86_64-linux-gnu/libf77blas.so;/usr/lib/x
                          | 86_64-linux-gnu/libcblas.so;/usr/lib/x86_64-linux-
                          | gnu/libatlas.so
 LAPACK                   | /usr/lib/x86_64-linux-gnu/libatlas.so;/usr/lib/x86
                          | _64-linux-gnu/atlas/liblapack.so
 Static linking           | OFF
 Last Git revision        | da625bf48c74028e805616daee31bc5d76b3a20d
 Git branch               | (HEAD detached at Dalton2018.1)
 Configuration time       | 2019-01-18 10:20:51.437510


   Content of the .dal input file
 ----------------------------------

**DALTON INPUT
.RUN RESPONSE
.DIRECT
**WAVE FUNCTIONS
.MCSCF
*CONFIGURATION INPUT
.SPIN MULTIPLICITY
1
.SYMMETRY
1
.INACTIVE ORBITALS
15 10 2 0
.CAS SPACE
2 1 1 2
.ELECTRONS
10
*ORBITAL INPUT
.MOSTART
.HUCKEL
*OPTIMIZATION
.DETERMINANTS
*CI VECTOR
.PLUS COMBINATIONS
**RESPONSE
*CUBIC
.DIPLEN
**END OF DALTON INPUT


   Content of the .mol file
 ----------------------------

BASIS
aug-cc-pCVDZ
 nitrobenzene
 Generated by the Dalton Input File Plugin for Avogadro
Atomtypes=4 Angstrom Generators=2 X Y
Charge=6.0 Atoms=4
C        0.0000000000            0.0000000000           -0.0265759623
C       -1.2190534920            0.0000000000           -0.6979856948
C       -1.2105095870            0.0000000000           -2.0897394457
C        0.0000000000            0.0000000000           -2.7841484631
Charge=7.0 Atoms=1
N        0.0000000000            0.0000000000            1.4549291696
Charge=8.0 Atoms=1
O       -1.0847503743            0.0000000000            2.0235779798
Charge=1.0 Atoms=3
H       -2.1410602955            0.0000000000           -0.1327964319
H       -2.1492827751            0.0000000000           -2.6311811056
H        0.0000000000            0.0000000000           -3.8683953478


       *******************************************************************
       *********** Output from DALTON general input processing ***********
       *******************************************************************

 --------------------------------------------------------------------------------
   Overall default print level:    0
   Print level for DALTON.STAT:    1

    AO-direct calculation (in sections where implemented)
    HERMIT 1- and 2-electron integral sections will be executed
    "Old" integral transformation used (limited to max 255 basis functions)
    Wave function sections will be executed (SIRIUS module)
    Dynamic molecular response properties section will be executed (RESPONSE module)
 --------------------------------------------------------------------------------


   ****************************************************************************
   *************** Output of molecule and basis set information ***************
   ****************************************************************************


    The two title cards from your ".mol" input:
    ------------------------------------------------------------------------
 1:  nitrobenzene                                                           
 2:  Generated by the Dalton Input File Plugin for Avogadro                 
    ------------------------------------------------------------------------

  Coordinates are entered in Angstrom and converted to atomic units.
          - Conversion factor : 1 bohr = 0.52917721 A

  Atomic type no.    1
  --------------------
  Nuclear charge:   6.00000
  Number of symmetry independent centers:    4
  Number of basis sets to read;    2
  Basis set file used for this atomic type with Z =   6 :
     "/home/lab333/dalton/build_2018_atlas/basis/aug-cc-pCVDZ"

  Atomic type no.    2
  --------------------
  Nuclear charge:   7.00000
  Number of symmetry independent centers:    1
  Number of basis sets to read;    2
  Basis set file used for this atomic type with Z =   7 :
     "/home/lab333/dalton/build_2018_atlas/basis/aug-cc-pCVDZ"

  Atomic type no.    3
  --------------------
  Nuclear charge:   8.00000
  Number of symmetry independent centers:    1
  Number of basis sets to read;    2
  Basis set file used for this atomic type with Z =   8 :
     "/home/lab333/dalton/build_2018_atlas/basis/aug-cc-pCVDZ"

  Atomic type no.    4
  --------------------
  Nuclear charge:   1.00000
  Number of symmetry independent centers:    3
  Number of basis sets to read;    2
  Basis set file used for this atomic type with Z =   1 :
     "/home/lab333/dalton/build_2018_atlas/basis/aug-cc-pCVDZ"


                         SYMGRP: Point group information
                         -------------------------------

@    Point group: C2v

@  * The irrep name for each symmetry:    1: A1     2: B1     3: B2     4: A2 

   * The point group was generated by:

      Reflection in the yz-plane
      Reflection in the xz-plane

   * Group multiplication table

        |  E   C2z  Oxz  Oyz
   -----+--------------------
     E  |  E   C2z  Oxz  Oyz
    C2z | C2z   E   Oyz  Oxz
    Oxz | Oxz  Oyz   E   C2z
    Oyz | Oyz  Oxz  C2z   E 

   * Character table

        |  E   C2z  Oxz  Oyz
   -----+--------------------
    A1  |   1    1    1    1
    B1  |   1   -1    1   -1
    B2  |   1   -1   -1    1
    A2  |   1    1   -1   -1

   * Direct product table

        | A1   B1   B2   A2 
   -----+--------------------
    A1  | A1   B1   B2   A2 
    B1  | B1   A1   A2   B2 
    B2  | B2   A2   A1   B1 
    A2  | A2   B2   B1   A1 


                                 Isotopic Masses
                                 ---------------

                           C          12.000000
                           C   _1     12.000000
                           C   _2     12.000000
                           C   _1     12.000000
                           C   _2     12.000000
                           C          12.000000
                           N          14.003074
                           O   _1     15.994915
                           O   _2     15.994915
                           H   _1      1.007825
                           H   _2      1.007825
                           H   _1      1.007825
                           H   _2      1.007825
                           H           1.007825

                       Total mass:   123.032029 amu
                       Natural abundance:  92.716 %

 Center-of-mass coordinates (a.u.):    0.000000    0.000000   -0.383938


  Atoms and basis sets
  --------------------

  Number of atom types :    4
  Total number of atoms:   14

  Basis set used is "aug-cc-pCVDZ" from the basis set library.

  label    atoms   charge   prim   cont     basis
  ----------------------------------------------------------------------
  C           6    6.0000    39    27      [11s6p2d|5s4p2d]                                   
  N           1    7.0000    39    27      [11s6p2d|5s4p2d]                                   
  O           2    8.0000    39    27      [11s6p2d|5s4p2d]                                   
  H           5    1.0000    11     9      [5s2p|3s2p]                                        
  ----------------------------------------------------------------------
  total:     14   64.0000   406   288
  ----------------------------------------------------------------------
  Spherical harmonic basis used.

  Threshold for neglecting AO integrals:  1.00D-12


  Symmetry Coordinates
  --------------------

  Number of coordinates in each symmetry:    14   14    9    5


   Interatomic separations (in Angstrom):
   --------------------------------------

            C           C   _1      C   _2      C   _1      C   _2      C     
            ------      ------      ------      ------      ------      ------
 C     :    0.000000
 C   _1:    1.391719    0.000000
 C   _2:    1.391719    2.438107    0.000000
 C   _1:    2.392065    1.391780    2.799956    0.000000
 C   _2:    2.392065    2.799956    1.391780    2.421019    0.000000
 C     :    2.757573    2.416230    2.416230    1.395542    1.395542    0.000000
 N     :    1.481505    2.474093    2.474093    3.745665    3.745665    4.239078
 O   _1:    2.319443    2.724875    3.565729    4.115239    4.710371    4.928582
 O   _2:    2.319443    3.565729    2.724875    4.710371    4.115239    4.928582
 H   _1:    2.143694    1.081451    3.407316    2.166922    3.881063    3.407904
 H   _2:    2.143694    3.407316    1.081451    3.881063    2.166922    3.407904
 H   _1:    3.376890    2.145360    3.883675    1.083722    3.403140    2.154719
 H   _2:    3.376890    3.883675    2.145360    3.403140    1.083722    2.154719
 H     :    3.841819    3.396703    3.396703    2.151500    2.151500    1.084247

            N           O   _1      O   _2      H   _1      H   _2      H   _1
            ------      ------      ------      ------      ------      ------
 N     :    0.000000
 O   _1:    1.224763    0.000000
 O   _2:    1.224763    2.169501    0.000000
 H   _1:    2.665523    2.401196    3.880181    0.000000
 H   _2:    2.665523    3.880181    2.401196    4.282121    0.000000
 H   _1:    4.616894    4.774936    5.667958    2.498398    4.964773    0.000000
 H   _2:    4.616894    5.667958    4.774936    4.964773    2.498398    4.298566
 H     :    5.323325    5.990996    5.990996    4.305675    4.305675    2.479943

            H   _2      H     
            ------      ------
 H   _2:    0.000000
 H     :    2.479943    0.000000


  Max    interatomic separation is    5.9910 Angstrom (   11.3213 Bohr)
  between atoms   14 and    8, "H     " and "O   _1".

  Min HX interatomic separation is    1.0815 Angstrom (    2.0436 Bohr)

  Min YX interatomic separation is    1.2248 Angstrom (    2.3145 Bohr)


  Bond distances (Angstrom):
  --------------------------

                  atom 1     atom 2       distance
                  ------     ------       --------
  bond distance:  C   _1     C            1.391719
  bond distance:  C   _2     C            1.391719
  bond distance:  C   _1     C   _1       1.391780
  bond distance:  C   _2     C   _2       1.391780
  bond distance:  C          C   _1       1.395542
  bond distance:  C          C   _2       1.395542
  bond distance:  N          C            1.481505
  bond distance:  O   _1     N            1.224763
  bond distance:  O   _2     N            1.224763
  bond distance:  H   _1     C   _1       1.081451
  bond distance:  H   _2     C   _2       1.081451
  bond distance:  H   _1     C   _1       1.083722
  bond distance:  H   _2     C   _2       1.083722
  bond distance:  H          C            1.084247


  Bond angles (degrees):
  ----------------------

                  atom 1     atom 2     atom 3         angle
                  ------     ------     ------         -----
  bond angle:     C   _1     C          C   _2       122.311
  bond angle:     C   _1     C          N            118.844
  bond angle:     C   _2     C          N            118.844
  bond angle:     C          C   _1     C   _1       118.493
  bond angle:     C          C   _1     H   _1       119.647
  bond angle:     C   _1     C   _1     H   _1       121.860
  bond angle:     C          C   _2     C   _2       118.493
  bond angle:     C          C   _2     H   _2       119.647
  bond angle:     C   _2     C   _2     H   _2       121.860
  bond angle:     C   _1     C   _1     C            120.192
  bond angle:     C   _1     C   _1     H   _1       119.623
  bond angle:     C          C   _1     H   _1       120.185
  bond angle:     C   _2     C   _2     C            120.192
  bond angle:     C   _2     C   _2     H   _2       119.623
  bond angle:     C          C   _2     H   _2       120.185
  bond angle:     C   _1     C          C   _2       120.319
  bond angle:     C   _1     C          H            119.841
  bond angle:     C   _2     C          H            119.841
  bond angle:     C          N          O   _1       117.664
  bond angle:     C          N          O   _2       117.664
  bond angle:     O   _1     N          O   _2       124.671




 Principal moments of inertia (u*A**2) and principal axes
 --------------------------------------------------------

   IA     127.027245          0.000000    0.000000    1.000000
   IB     394.156158          1.000000    0.000000    0.000000
   IC     521.183403          0.000000    1.000000    0.000000


 Rotational constants
 --------------------

@    The molecule is planar.

               A                   B                   C

           3978.5088           1282.1797            969.6759 MHz
            0.132709            0.042769            0.032345 cm-1


@  Nuclear repulsion energy :  412.135415267067 Hartree


  Symmetry Orbitals
  -----------------

  Number of orbitals in each symmetry:         115   91   48   34


  Symmetry  A1 ( 1)

    1     C        1s         1
    2     C        1s         2
    3     C        1s         3
    4     C        1s         4
    5     C        1s         5
    6     C        2pz        8
    7     C        2pz       11
    8     C        2pz       14
    9     C        2pz       17
   10     C        3d0       20
   11     C        3d2+      22
   12     C        3d0       25
   13     C        3d2+      27
   14     C        1s        28 +   29
   15     C        1s        30 +   31
   16     C        1s        32 +   33
   17     C        1s        34 +   35
   18     C        1s        36 +   37
   19     C        2px       38 -   39
   20     C        2pz       42 +   43
   21     C        2px       44 -   45
   22     C        2pz       48 +   49
   23     C        2px       50 -   51
   24     C        2pz       54 +   55
   25     C        2px       56 -   57
   26     C        2pz       60 +   61
   27     C        3d0       66 +   67
   28     C        3d1+      68 -   69
   29     C        3d2+      70 +   71
   30     C        3d0       76 +   77
   31     C        3d1+      78 -   79
   32     C        3d2+      80 +   81
   33     C        1s        82 +   83
   34     C        1s        84 +   85
   35     C        1s        86 +   87
   36     C        1s        88 +   89
   37     C        1s        90 +   91
   38     C        2px       92 -   93
   39     C        2pz       96 +   97
   40     C        2px       98 -   99
   41     C        2pz      102 +  103
   42     C        2px      104 -  105
   43     C        2pz      108 +  109
   44     C        2px      110 -  111
   45     C        2pz      114 +  115
   46     C        3d0      120 +  121
   47     C        3d1+     122 -  123
   48     C        3d2+     124 +  125
   49     C        3d0      130 +  131
   50     C        3d1+     132 -  133
   51     C        3d2+     134 +  135
   52     C        1s       136
   53     C        1s       137
   54     C        1s       138
   55     C        1s       139
   56     C        1s       140
   57     C        2pz      143
   58     C        2pz      146
   59     C        2pz      149
   60     C        2pz      152
   61     C        3d0      155
   62     C        3d2+     157
   63     C        3d0      160
   64     C        3d2+     162
   65     N        1s       163
   66     N        1s       164
   67     N        1s       165
   68     N        1s       166
   69     N        1s       167
   70     N        2pz      170
   71     N        2pz      173
   72     N        2pz      176
   73     N        2pz      179
   74     N        3d0      182
   75     N        3d2+     184
   76     N        3d0      187
   77     N        3d2+     189
   78     O        1s       190 +  191
   79     O        1s       192 +  193
   80     O        1s       194 +  195
   81     O        1s       196 +  197
   82     O        1s       198 +  199
   83     O        2px      200 -  201
   84     O        2pz      204 +  205
   85     O        2px      206 -  207
   86     O        2pz      210 +  211
   87     O        2px      212 -  213
   88     O        2pz      216 +  217
   89     O        2px      218 -  219
   90     O        2pz      222 +  223
   91     O        3d0      228 +  229
   92     O        3d1+     230 -  231
   93     O        3d2+     232 +  233
   94     O        3d0      238 +  239
   95     O        3d1+     240 -  241
   96     O        3d2+     242 +  243
   97     H        1s       244 +  245
   98     H        1s       246 +  247
   99     H        1s       248 +  249
  100     H        2px      250 -  251
  101     H        2pz      254 +  255
  102     H        2px      256 -  257
  103     H        2pz      260 +  261
  104     H        1s       262 +  263
  105     H        1s       264 +  265
  106     H        1s       266 +  267
  107     H        2px      268 -  269
  108     H        2pz      272 +  273
  109     H        2px      274 -  275
  110     H        2pz      278 +  279
  111     H        1s       280
  112     H        1s       281
  113     H        1s       282
  114     H        2pz      285
  115     H        2pz      288


  Symmetry  B1 ( 2)

  116     C        2px        6
  117     C        2px        9
  118     C        2px       12
  119     C        2px       15
  120     C        3d1+      21
  121     C        3d1+      26
  122     C        1s        28 -   29
  123     C        1s        30 -   31
  124     C        1s        32 -   33
  125     C        1s        34 -   35
  126     C        1s        36 -   37
  127     C        2px       38 +   39
  128     C        2pz       42 -   43
  129     C        2px       44 +   45
  130     C        2pz       48 -   49
  131     C        2px       50 +   51
  132     C        2pz       54 -   55
  133     C        2px       56 +   57
  134     C        2pz       60 -   61
  135     C        3d0       66 -   67
  136     C        3d1+      68 +   69
  137     C        3d2+      70 -   71
  138     C        3d0       76 -   77
  139     C        3d1+      78 +   79
  140     C        3d2+      80 -   81
  141     C        1s        82 -   83
  142     C        1s        84 -   85
  143     C        1s        86 -   87
  144     C        1s        88 -   89
  145     C        1s        90 -   91
  146     C        2px       92 +   93
  147     C        2pz       96 -   97
  148     C        2px       98 +   99
  149     C        2pz      102 -  103
  150     C        2px      104 +  105
  151     C        2pz      108 -  109
  152     C        2px      110 +  111
  153     C        2pz      114 -  115
  154     C        3d0      120 -  121
  155     C        3d1+     122 +  123
  156     C        3d2+     124 -  125
  157     C        3d0      130 -  131
  158     C        3d1+     132 +  133
  159     C        3d2+     134 -  135
  160     C        2px      141
  161     C        2px      144
  162     C        2px      147
  163     C        2px      150
  164     C        3d1+     156
  165     C        3d1+     161
  166     N        2px      168
  167     N        2px      171
  168     N        2px      174
  169     N        2px      177
  170     N        3d1+     183
  171     N        3d1+     188
  172     O        1s       190 -  191
  173     O        1s       192 -  193
  174     O        1s       194 -  195
  175     O        1s       196 -  197
  176     O        1s       198 -  199
  177     O        2px      200 +  201
  178     O        2pz      204 -  205
  179     O        2px      206 +  207
  180     O        2pz      210 -  211
  181     O        2px      212 +  213
  182     O        2pz      216 -  217
  183     O        2px      218 +  219
  184     O        2pz      222 -  223
  185     O        3d0      228 -  229
  186     O        3d1+     230 +  231
  187     O        3d2+     232 -  233
  188     O        3d0      238 -  239
  189     O        3d1+     240 +  241
  190     O        3d2+     242 -  243
  191     H        1s       244 -  245
  192     H        1s       246 -  247
  193     H        1s       248 -  249
  194     H        2px      250 +  251
  195     H        2pz      254 -  255
  196     H        2px      256 +  257
  197     H        2pz      260 -  261
  198     H        1s       262 -  263
  199     H        1s       264 -  265
  200     H        1s       266 -  267
  201     H        2px      268 +  269
  202     H        2pz      272 -  273
  203     H        2px      274 +  275
  204     H        2pz      278 -  279
  205     H        2px      283
  206     H        2px      286


  Symmetry  B2 ( 3)

  207     C        2py        7
  208     C        2py       10
  209     C        2py       13
  210     C        2py       16
  211     C        3d1-      19
  212     C        3d1-      24
  213     C        2py       40 +   41
  214     C        2py       46 +   47
  215     C        2py       52 +   53
  216     C        2py       58 +   59
  217     C        3d2-      62 -   63
  218     C        3d1-      64 +   65
  219     C        3d2-      72 -   73
  220     C        3d1-      74 +   75
  221     C        2py       94 +   95
  222     C        2py      100 +  101
  223     C        2py      106 +  107
  224     C        2py      112 +  113
  225     C        3d2-     116 -  117
  226     C        3d1-     118 +  119
  227     C        3d2-     126 -  127
  228     C        3d1-     128 +  129
  229     C        2py      142
  230     C        2py      145
  231     C        2py      148
  232     C        2py      151
  233     C        3d1-     154
  234     C        3d1-     159
  235     N        2py      169
  236     N        2py      172
  237     N        2py      175
  238     N        2py      178
  239     N        3d1-     181
  240     N        3d1-     186
  241     O        2py      202 +  203
  242     O        2py      208 +  209
  243     O        2py      214 +  215
  244     O        2py      220 +  221
  245     O        3d2-     224 -  225
  246     O        3d1-     226 +  227
  247     O        3d2-     234 -  235
  248     O        3d1-     236 +  237
  249     H        2py      252 +  253
  250     H        2py      258 +  259
  251     H        2py      270 +  271
  252     H        2py      276 +  277
  253     H        2py      284
  254     H        2py      287


  Symmetry  A2 ( 4)

  255     C        3d2-      18
  256     C        3d2-      23
  257     C        2py       40 -   41
  258     C        2py       46 -   47
  259     C        2py       52 -   53
  260     C        2py       58 -   59
  261     C        3d2-      62 +   63
  262     C        3d1-      64 -   65
  263     C        3d2-      72 +   73
  264     C        3d1-      74 -   75
  265     C        2py       94 -   95
  266     C        2py      100 -  101
  267     C        2py      106 -  107
  268     C        2py      112 -  113
  269     C        3d2-     116 +  117
  270     C        3d1-     118 -  119
  271     C        3d2-     126 +  127
  272     C        3d1-     128 -  129
  273     C        3d2-     153
  274     C        3d2-     158
  275     N        3d2-     180
  276     N        3d2-     185
  277     O        2py      202 -  203
  278     O        2py      208 -  209
  279     O        2py      214 -  215
  280     O        2py      220 -  221
  281     O        3d2-     224 +  225
  282     O        3d1-     226 -  227
  283     O        3d2-     234 +  235
  284     O        3d1-     236 -  237
  285     H        2py      252 -  253
  286     H        2py      258 -  259
  287     H        2py      270 -  271
  288     H        2py      276 -  277

  Symmetries of electric field:  B1 (2)  B2 (3)  A1 (1)

  Symmetries of magnetic field:  B2 (3)  B1 (2)  A2 (4)


                     .---------------------------------------.
                     | Starting in Integral Section (HERMIT) |
                     `---------------------------------------'



 ***************************************************************************************
 ****************** Output from **INTEGRALS input processing (HERMIT) ******************
 ***************************************************************************************


 - Using defaults, no **INTEGRALS input found

 Default print level:        1

 Calculation of one-electron Hamiltonian integrals.

 Center of mass  (bohr):      0.000000000000      0.000000000000     -0.383938108481
 Operator center (bohr):      0.000000000000      0.000000000000      0.000000000000
 Gauge origin    (bohr):      0.000000000000      0.000000000000      0.000000000000
 Dipole origin   (bohr):      0.000000000000      0.000000000000      0.000000000000


     ************************************************************************
     ************************** Output from HERINT **************************
     ************************************************************************



                      Nuclear contribution to dipole moments
                      --------------------------------------

                 au               Debye          C m (/(10**-30)

      z    -32.41191504       -82.38286538      -274.79965949


  Time used in GABGEN     is       0.11 seconds
  Total CPU  time used in HERMIT:   0.42 seconds
  Total wall time used in HERMIT:   0.41 seconds


                        .----------------------------------.
                        | End of Integral Section (HERMIT) |
                        `----------------------------------'



                   .--------------------------------------------.
                   | Starting in Wave Function Section (SIRIUS) |
                   `--------------------------------------------'


 *** Output from Huckel module :

     Using EWMO model:          F
     Using EHT  model:          T
     Number of Huckel orbitals each symmetry:   24   17    6    3

 Huckel EHT eigenvalues for symmetry :  1
          -20.695822     -15.706036     -11.414993     -11.394585     -11.376746
          -11.362597      -1.748744      -1.555382      -1.196259      -0.941364
           -0.817059      -0.782210      -0.643577      -0.589224      -0.493397
           -0.429144      -0.328230      -0.246947      -0.225806      -0.213738
           -0.205823      -0.178738      -0.166343      -0.160473

 Huckel EHT eigenvalues for symmetry :  2
          -20.700625     -11.396474     -11.377857      -1.399983      -1.203200
           -0.879843      -0.646405      -0.569964      -0.526471      -0.479328
           -0.414891      -0.271537      -0.213209      -0.202807      -0.176234
           -0.165379      -0.163255

 Huckel EHT eigenvalues for symmetry :  3
           -0.800032      -0.672072      -0.465792      -0.384453      -0.281766
           -0.236539

 Huckel EHT eigenvalues for symmetry :  4
           -0.592875      -0.460139      -0.288832

 **********************************************************************
 *SIRIUS* a direct, restricted step, second order MCSCF program       *
 **********************************************************************

 
     Date and time (Linux)  : Tue Jun 25 10:42:19 2019
     Host name              : Lab2-333-NPs                            

 Title lines from ".mol" input file:
      nitrobenzene                                                           
      Generated by the Dalton Input File Plugin for Avogadro                 

 Print level on unit LUPRI =   2 is   0
 Print level on unit LUW4  =   2 is   5

@    MC-SCF optimization.

@    Multi-configurational response calculation.
@              Type: complete active space calculation (CAS).
 Fock matrices are calculated directly without use of integrals on disk.

 Initial molecular orbitals are obtained according to
 ".MOSTART EHT   " input option

     Wave function specification
     ============================
@    Wave function type        --- MC-SCF ---
@    Number of closed shell electrons          54
@    Number of electrons in active shells      10
@    Total charge of the molecule               0

@    Spin multiplicity and 2 M_S                1         0
@    Total number of symmetries                 4 (point group: C2v)
@    Reference state symmetry                   1 (irrep name : A1 )

     Orbital specifications
     ======================
@    Abelian symmetry species          All |    1    2    3    4
@                                          |  A1   B1   B2   A2 
                                       --- |  ---  ---  ---  ---
@    Inactive orbitals                  27 |   15   10    2    0
@    Active orbitals                     6 |    2    1    1    2
@    Secondary orbitals                255 |   98   80   45   32
@    Total number of orbitals          288 |  115   91   48   34
@    Number of basis functions         288 |  115   91   48   34

     Optimization information
     ========================
@    Number of determinants                  10
@    Number of orbital rotations           2787
     ------------------------------------------
@    Total number of variables             2797

     Maximum number of macro iterations      25
     Maximum number of micro iterations     600
     Threshold for MCSCF gradient      1.00D-05
     Number of initial trial vectors          1
     Number of initial CI iterations          3
     Number of simultaneous trial vectors     1

@    This calculation converges to the lowest state for the specified symmetry and spin species.

     Maximum number of NEO/NR iterations  24

    INFORMATION: Switched to "new" integral transformation (from 1988 ;-) )
    because more than 255 basis functions.


        SIRIUS MCSCF optimization (SIROPT)
 ================================================


 Fock matrix screening setting for SIRCNO: IFTHRS =    9


 ----- Output from SIRIUS CI module (CICTL) -----




---> (Re)generating AOTWOINT


     ************************************************************************
     ************************** Output from HERINT **************************
     ************************************************************************


 Threshold for neglecting two-electron integrals:  1.00D-12
 HERMIT - Number of two-electron integrals written:   203489779 ( 23.5% )
 HERMIT - Megabytes written:                           3106.305

  Time used in TWOINT     is      37.53 seconds

 2-el. integral transformation level 0: Total CPU and WALL times (sec)     128.625     131.205


 --- SIRCI.CIST1: plus combination of all degenerate
                 configurations is used as start vectors.


 (CIST1) 8 lowest diagonal elements:

 Element no. Config.no.    Active energy      Total energy

         1 :          7    -17.1184670519   -432.2550338648
         2 :          4    -16.4141914853   -431.5507582982
         3 :          8    -16.1627688378   -431.2993356507
         4 :          9    -16.1627688378   -431.2993356507
         5 :          2    -15.8764740785   -431.0130408915
         6 :          3    -15.8764740785   -431.0130408915
         7 :          5    -15.3116021992   -430.4481690121
         8 :          1    -14.7905024504   -429.9270692634


 Convergence threshold for CI optimization :     0.00000500



 *** Reached maximum number of CI iterations:    3
              1 CI roots are not converged.


@ Final CI energies and residuals in symmetry 1 (irrep A1 )
@    1     -432.301735134279340       6.23D-04

   --- OUTPUT FROM SIRCNO     Keyword = FD+NO 


 Occupations of CAS natural orbitals:

 Symmetry  1 ( irrep A1  in C2v )

   1.999984028   0.001377051

 Symmetry  2 ( irrep B1  in C2v )

   1.999997307

 Symmetry  3 ( irrep B2  in C2v )

   1.999980002

 Symmetry  4 ( irrep A2  in C2v )

   1.998661625   1.999999988


 --- MACRO ITERATION  1 ---
 --------------------------

 2-el. integral transformation level 3: Total CPU and WALL times (sec)      93.281      93.609

 Fock matrix screening setting for this macro iteration: 10^( -9)

 Total MCSCF energy       :          -432.301735133758484  (MACRO    1)

 - Nuclear repulsion      :           412.135415267066946
 - Inactive energy        :          -827.271982080447970
 - Active energy          :           -17.165168320377482

 Norm of total gradient   :             6.428208288428
 -    of CI gradient      :             0.001245113648
 -    of orbital gradient :             6.428208167841
      Virial theorem: -V/T =      1.981215
@    MULPOP   C       0.58; C   _1  0.51; C   _2  0.51; C   _1  0.43; C   _2  0.43; C       0.56; N       0.56; O   _1 -1.31; O   _2 -1.31; H   _1 -0.20; 
@             H   _2 -0.20; H   _1 -0.19; H   _2 -0.19; H      -0.19; 

 Residual norm when dim(red L) =   5
 NEO root     CSF        orbital          total
    1     0.05684766     0.20788578     0.21551834 converged

 (NEONEX) NEO vector is converged.

   --- OUTPUT FROM SIRCNO     Keyword = FD+NO 


 Occupations of CAS natural orbitals:

 Symmetry  1 ( irrep A1  in C2v )

   1.999984028   0.001377051

 Symmetry  2 ( irrep B1  in C2v )

   1.999997307

 Symmetry  3 ( irrep B2  in C2v )

   1.999980002

 Symmetry  4 ( irrep A2  in C2v )

   1.998661625   1.999999988


 --- MACRO ITERATION  2 ---
 --------------------------

 2-el. integral transformation level 3: Total CPU and WALL times (sec)      93.797      94.012

 Fock matrix screening setting for this macro iteration: 10^( -9)

 Total MCSCF energy       :          -434.153690833583653  (MACRO    2)

 - Nuclear repulsion      :           412.135415267066946
 - Inactive energy        :          -830.344195636500217
 - Active energy          :           -15.944910464150388

 Norm of total gradient   :             0.992527544913
 -    of CI gradient      :             0.055917012360
 -    of orbital gradient :             0.990951166879
      Virial theorem: -V/T =      1.988494
@    MULPOP   C       1.14; C   _1  0.48; C   _2  0.48; C   _1  0.46; C   _2  0.46; C       0.48; N       0.77; O   _1 -0.86; O   _2 -0.86; H   _1 -0.53; 
@             H   _2 -0.53; H   _1 -0.49; H   _2 -0.49; H      -0.50; 

 (SIRNEO) iteration (  2,  5)
 Micro iteration termination criterion met, EVAL(ISTATE+1) = -1.44D-03

   --- OUTPUT FROM SIRCNO     Keyword = FD+NO 


 Occupations of CAS natural orbitals:

 Symmetry  1 ( irrep A1  in C2v )

   1.999984028   0.001377051

 Symmetry  2 ( irrep B1  in C2v )

   1.999997307

 Symmetry  3 ( irrep B2  in C2v )

   1.999980002

 Symmetry  4 ( irrep A2  in C2v )

   1.998661625   1.999999988


 --- MACRO ITERATION  3 ---
 --------------------------

 2-el. integral transformation level 3: Total CPU and WALL times (sec)      93.859      94.057

 Fock matrix screening setting for this macro iteration: 10^( -9)

 Total MCSCF energy       :          -434.233545685860122  (MACRO    3)

 - Nuclear repulsion      :           412.135415267066946
 - Inactive energy        :          -826.472827308779642
 - Active energy          :           -19.896133644147433

 Norm of total gradient   :             0.556290199695
 -    of CI gradient      :             0.043759205324
 -    of orbital gradient :             0.554566423638
      Virial theorem: -V/T =      1.990021
@    MULPOP   C       1.76; C   _1  0.06; C   _2  0.06; C   _1  0.58; C   _2  0.58; C       0.36; N       0.63; O   _1 -0.88; O   _2 -0.88; H   _1 -0.46; 
@             H   _2 -0.46; H   _1 -0.45; H   _2 -0.45; H      -0.43; 

 (SIRNEO) iteration (  3,  3)
 Micro iteration termination criterion met, EVAL(ISTATE+1) = -2.56D-03

   --- OUTPUT FROM SIRCNO     Keyword = FD+NO 


 Occupations of CAS natural orbitals:

 Symmetry  1 ( irrep A1  in C2v )

   1.999984028   0.001377051

 Symmetry  2 ( irrep B1  in C2v )

   1.999997307

 Symmetry  3 ( irrep B2  in C2v )

   1.999980002

 Symmetry  4 ( irrep A2  in C2v )

   1.998661625   1.999999988


 --- MACRO ITERATION  4 ---
 --------------------------

 2-el. integral transformation level 3: Total CPU and WALL times (sec)      93.469      93.751

 Fock matrix screening setting for this macro iteration: 10^( -9)

 Total MCSCF energy       :          -434.234594301490972  (MACRO    4)

 - Nuclear repulsion      :           412.135415267066946
 - Inactive energy        :          -803.665378954700031
 - Active energy          :           -42.704630613857880

 Norm of total gradient   :             0.495786771339
 -    of CI gradient      :             0.056835045213
 -    of orbital gradient :             0.492518324807
      Virial theorem: -V/T =      1.990925
@    MULPOP   C       1.32; C   _1  0.30; C   _2  0.30; C   _1  0.50; C   _2  0.50; C       0.33; N       0.91; O   _1 -0.93; O   _2 -0.93; H   _1 -0.49; 
@             H   _2 -0.49; H   _1 -0.43; H   _2 -0.43; H      -0.44; 

 (SIRSTP) Energy difference;
 actual, predicted and ratio:  -0.001048615630850  -0.004803882757300    0.218285

 (SIRSTP) step is too large -- backstep

   --- OUTPUT FROM SIRCNO     Keyword = FD+NO 


 Occupations of CAS natural orbitals:

 Symmetry  1 ( irrep A1  in C2v )

   1.999984028   0.001377051

 Symmetry  2 ( irrep B1  in C2v )

   1.999997307

 Symmetry  3 ( irrep B2  in C2v )

   1.999980002

 Symmetry  4 ( irrep A2  in C2v )

   1.998661625   1.999999988


 Optimization control: Step was too large, we backstep


 --- MACRO ITERATION  4 BACKSTEP NO.  1 ---

 2-el. integral transformation level 3: Total CPU and WALL times (sec)      94.078      94.257

 Fock matrix screening setting for this macro iteration: 10^( -9)

 Total MCSCF energy       :          -434.235565579781166  (MACRO    4)

 - Nuclear repulsion      :           412.135415267066946
 - Inactive energy        :          -811.723166639140686
 - Active energy          :           -34.647814207707434

 Norm of total gradient   :             0.311150809977
 -    of CI gradient      :             0.048659359957
 -    of orbital gradient :             0.307322458076
      Virial theorem: -V/T =      1.990750
@    MULPOP   C       1.32; C   _1  0.27; C   _2  0.27; C   _1  0.52; C   _2  0.52; C       0.33; N       0.88; O   _1 -0.92; O   _2 -0.92; H   _1 -0.48; 
@             H   _2 -0.48; H   _1 -0.44; H   _2 -0.44; H      -0.44; 

 (SIRNEO) iteration (  4,  6)
 Micro iteration termination criterion met, EVAL(ISTATE+1) = -1.10D-03

   --- OUTPUT FROM SIRCNO     Keyword = FD+NO 


 Occupations of CAS natural orbitals:

 Symmetry  1 ( irrep A1  in C2v )

   1.999978282   0.001275033

 Symmetry  2 ( irrep B1  in C2v )

   1.999995440

 Symmetry  3 ( irrep B2  in C2v )

   1.999997355

 Symmetry  4 ( irrep A2  in C2v )

   1.998753897   1.999999993


 --- MACRO ITERATION  5 ---
 --------------------------

 2-el. integral transformation level 3: Total CPU and WALL times (sec)      91.672      91.724

 Fock matrix screening setting for this macro iteration: 10^( -9)

 Total MCSCF energy       :          -434.236649282141627  (MACRO    5)

 - Nuclear repulsion      :           412.135415267066946
 - Inactive energy        :          -799.865907480278338
 - Active energy          :           -46.506157068930250

 Norm of total gradient   :             0.145055424602
 -    of CI gradient      :             0.116512030496
 -    of orbital gradient :             0.086406151149
      Virial theorem: -V/T =      1.993015
@    MULPOP   C       1.62; C   _1  0.21; C   _2  0.21; C   _1  0.50; C   _2  0.50; C       0.33; N       0.90; O   _1 -1.01; O   _2 -1.01; H   _1 -0.46; 
@             H   _2 -0.46; H   _1 -0.44; H   _2 -0.44; H      -0.44; 

 (SIRNEO) iteration (  5,  7)
 Micro iteration termination criterion met, EVAL(ISTATE+1) = -1.58D-03

   --- OUTPUT FROM SIRCNO     Keyword = FD+NO 


 Occupations of CAS natural orbitals:

 Symmetry  1 ( irrep A1  in C2v )

   1.999712103   0.000990252

 Symmetry  2 ( irrep B1  in C2v )

   1.999999922

 Symmetry  3 ( irrep B2  in C2v )

   1.999999205

 Symmetry  4 ( irrep A2  in C2v )

   1.999298519   2.000000000


 --- MACRO ITERATION  6 ---
 --------------------------

 2-el. integral transformation level 3: Total CPU and WALL times (sec)      91.109      91.154

 Fock matrix screening setting for this macro iteration: 10^( -9)

 Total MCSCF energy       :          -434.237555779448599  (MACRO    6)

 - Nuclear repulsion      :           412.135415267066946
 - Inactive energy        :          -799.027388734229817
 - Active energy          :           -47.345582312285735

 Norm of total gradient   :             0.077683381847
 -    of CI gradient      :             0.032108950600
 -    of orbital gradient :             0.070736999559
      Virial theorem: -V/T =      1.992794
@    MULPOP   C       1.78; C   _1  0.15; C   _2  0.15; C   _1  0.52; C   _2  0.52; C       0.27; N       0.81; O   _1 -0.99; O   _2 -0.99; H   _1 -0.44; 
@             H   _2 -0.44; H   _1 -0.44; H   _2 -0.44; H      -0.45; 

 Residual norm when dim(red L) =   9
 NEO root     CSF        orbital          total
    1     0.00370287     0.00224842     0.00433204 converged

 (NEONEX) NEO vector is converged.

   --- OUTPUT FROM SIRCNO     Keyword = FD+NO 


 Occupations of CAS natural orbitals:

 Symmetry  1 ( irrep A1  in C2v )

   1.996091000   0.004861115

 Symmetry  2 ( irrep B1  in C2v )

   1.999999533

 Symmetry  3 ( irrep B2  in C2v )

   1.999999281

 Symmetry  4 ( irrep A2  in C2v )

   1.999049072   2.000000000


 --- MACRO ITERATION  7 ---
 --------------------------

 2-el. integral transformation level 3: Total CPU and WALL times (sec)      91.141      91.168

 Fock matrix screening setting for this macro iteration: 10^( -9)

 Total MCSCF energy       :          -434.242991092667808  (MACRO    7)

 - Nuclear repulsion      :           412.135415267066946
 - Inactive energy        :          -798.044816704958976
 - Active energy          :           -48.333589654775807

 Norm of total gradient   :             0.049416657638
 -    of CI gradient      :             0.039521107331
 -    of orbital gradient :             0.029666279299
      Virial theorem: -V/T =      1.987194
@    MULPOP   C       1.94; C   _1  0.07; C   _2  0.07; C   _1  0.53; C   _2  0.53; C       0.29; N       0.36; O   _1 -0.79; O   _2 -0.79; H   _1 -0.44; 
@             H   _2 -0.44; H   _1 -0.44; H   _2 -0.44; H      -0.44; 

 Residual norm when dim(red L) =   8
 NEO root     CSF        orbital          total
    1     0.00659984     0.00520172     0.00840332 converged

 (NEONEX) NEO vector is converged.

   --- OUTPUT FROM SIRCNO     Keyword = FD+NO 


 Occupations of CAS natural orbitals:

 Symmetry  1 ( irrep A1  in C2v )

   1.978748030   0.021271010

 Symmetry  2 ( irrep B1  in C2v )

   1.999999683

 Symmetry  3 ( irrep B2  in C2v )

   1.999998828

 Symmetry  4 ( irrep A2  in C2v )

   1.999982456   1.999999995


 --- MACRO ITERATION  8 ---
 --------------------------

 2-el. integral transformation level 3: Total CPU and WALL times (sec)      91.500      91.609

 Fock matrix screening setting for this macro iteration: 10^( -9)

 Total MCSCF energy       :          -434.232322855132452  (MACRO    8)

 - Nuclear repulsion      :           412.135415267066946
 - Inactive energy        :          -797.508641562935054
 - Active energy          :           -48.859096559264330

 Norm of total gradient   :             0.415078864457
 -    of CI gradient      :             0.392030859163
 -    of orbital gradient :             0.136390135942
      Virial theorem: -V/T =      1.988126
@    MULPOP   C       1.81; C   _1  0.11; C   _2  0.11; C   _1  0.53; C   _2  0.53; C       0.29; N       0.16; O   _1 -0.66; O   _2 -0.66; H   _1 -0.44; 
@             H   _2 -0.44; H   _1 -0.44; H   _2 -0.44; H      -0.44; 

 (SIRSTP) Energy difference;
 actual, predicted and ratio:   0.010668237535356  -0.011874420974187   -0.898422

 (SIRSTP) step is too large -- backstep

   --- OUTPUT FROM SIRCNO     Keyword = FD+NO 


 Occupations of CAS natural orbitals:

 Symmetry  1 ( irrep A1  in C2v )

   1.985797383   0.014294764

 Symmetry  2 ( irrep B1  in C2v )

   1.999999664

 Symmetry  3 ( irrep B2  in C2v )

   1.999999709

 Symmetry  4 ( irrep A2  in C2v )

   1.999908481   1.999999998


 Optimization control: Step was too large, we backstep


 --- MACRO ITERATION  8 BACKSTEP NO.  1 ---

 2-el. integral transformation level 3: Total CPU and WALL times (sec)      90.844      90.904

 Fock matrix screening setting for this macro iteration: 10^( -9)

 Total MCSCF energy       :          -434.244272765983737  (MACRO    8)

 - Nuclear repulsion      :           412.135415267066946
 - Inactive energy        :          -797.999972182864440
 - Active energy          :           -48.379715850186265

 Norm of total gradient   :             0.150739341963
 -    of CI gradient      :             0.141107145827
 -    of orbital gradient :             0.053020020861
      Virial theorem: -V/T =      1.987412
@    MULPOP   C       1.87; C   _1  0.09; C   _2  0.09; C   _1  0.53; C   _2  0.53; C       0.29; N       0.19; O   _1 -0.69; O   _2 -0.69; H   _1 -0.44; 
@             H   _2 -0.44; H   _1 -0.44; H   _2 -0.44; H      -0.44; 

 (SIRSTP) Energy difference;
 actual, predicted and ratio:  -0.001281673315930  -0.007678166930832    0.166924

 (SIRSTP) step is too large -- backstep

   --- OUTPUT FROM SIRCNO     Keyword = FD+NO 


 Occupations of CAS natural orbitals:

 Symmetry  1 ( irrep A1  in C2v )

   1.989418041   0.010748448

 Symmetry  2 ( irrep B1  in C2v )

   1.999999652

 Symmetry  3 ( irrep B2  in C2v )

   1.999999955

 Symmetry  4 ( irrep A2  in C2v )

   1.999833905   1.999999999


 Optimization control: Step was too large, we backstep


 --- MACRO ITERATION  8 BACKSTEP NO.  2 ---

 2-el. integral transformation level 3: Total CPU and WALL times (sec)      90.547      90.629

 Fock matrix screening setting for this macro iteration: 10^( -9)

 Total MCSCF energy       :          -434.246232378769150  (MACRO    8)

 - Nuclear repulsion      :           412.135415267066946
 - Inactive energy        :          -798.187716870784925
 - Active energy          :           -48.193930775051143

 Norm of total gradient   :             0.056224929925
 -    of CI gradient      :             0.051488943114
 -    of orbital gradient :             0.022586090456
      Virial theorem: -V/T =      1.987200
@    MULPOP   C       1.90; C   _1  0.08; C   _2  0.08; C   _1  0.53; C   _2  0.53; C       0.29; N       0.23; O   _1 -0.72; O   _2 -0.72; H   _1 -0.44; 
@             H   _2 -0.44; H   _1 -0.44; H   _2 -0.44; H      -0.44; 

 Residual norm when dim(red L) =   7
 NEO root     CSF        orbital          total
    1     0.00561702     0.00199973     0.00596237 converged

 (NEONEX) NEO vector is converged.

   --- OUTPUT FROM SIRCNO     Keyword = FD+NO 


 Occupations of CAS natural orbitals:

 Symmetry  1 ( irrep A1  in C2v )

   1.990380042   0.009774962

 Symmetry  2 ( irrep B1  in C2v )

   1.999999676

 Symmetry  3 ( irrep B2  in C2v )

   1.999999984

 Symmetry  4 ( irrep A2  in C2v )

   1.999845336   2.000000000


 --- MACRO ITERATION  9 ---
 --------------------------

 2-el. integral transformation level 3: Total CPU and WALL times (sec)      90.609      90.645

 Fock matrix screening setting for this macro iteration: 10^( -9)

 Total MCSCF energy       :          -434.247275362770267  (MACRO    9)

 - Nuclear repulsion      :           412.135415267066946
 - Inactive energy        :          -798.224292431915956
 - Active energy          :           -48.158398197921272

 Norm of total gradient   :             0.016062314890
 -    of CI gradient      :             0.015778272737
 -    of orbital gradient :             0.003007335875
      Virial theorem: -V/T =      1.987726
@    MULPOP   C       1.84; C   _1  0.10; C   _2  0.10; C   _1  0.52; C   _2  0.52; C       0.30; N       0.20; O   _1 -0.69; O   _2 -0.69; H   _1 -0.44; 
@             H   _2 -0.44; H   _1 -0.44; H   _2 -0.44; H      -0.44; 

 (SIRNEO) iteration (  9, 11)
 Micro iteration termination criterion met, EVAL(ISTATE+1) = -2.58D-05

   --- OUTPUT FROM SIRCNO     Keyword = FD+NO 


 Occupations of CAS natural orbitals:

 Symmetry  1 ( irrep A1  in C2v )

   1.991178007   0.008944690

 Symmetry  2 ( irrep B1  in C2v )

   1.999999174

 Symmetry  3 ( irrep B2  in C2v )

   1.999999301

 Symmetry  4 ( irrep A2  in C2v )

   1.999878829   1.999999999


 --- MACRO ITERATION 10 ---
 --------------------------

 2-el. integral transformation level 3: Total CPU and WALL times (sec)      91.297      91.346

 Fock matrix screening setting for this macro iteration: 10^( -9)

 Total MCSCF energy       :          -434.247316719470518  (MACRO   10)

 - Nuclear repulsion      :           412.135415267066946
 - Inactive energy        :          -802.867082899746947
 - Active energy          :           -43.515649086790532

 Norm of total gradient   :             0.016844677512
 -    of CI gradient      :             0.015526289456
 -    of orbital gradient :             0.006532801561
      Virial theorem: -V/T =      1.987454
@    MULPOP   C       1.85; C   _1  0.10; C   _2  0.10; C   _1  0.53; C   _2  0.53; C       0.29; N       0.20; O   _1 -0.69; O   _2 -0.69; H   _1 -0.44; 
@             H   _2 -0.44; H   _1 -0.44; H   _2 -0.44; H      -0.44; 

 Residual norm when dim(red L) =  19
 NEO root     CSF        orbital          total
    1     0.00090385     0.00053065     0.00104811 converged

 (NEONEX) NEO vector is converged.

   --- OUTPUT FROM SIRCNO     Keyword = FD+NO 


 Occupations of CAS natural orbitals:

 Symmetry  1 ( irrep A1  in C2v )

   1.991170811   0.008963660

 Symmetry  2 ( irrep B1  in C2v )

   1.999988249

 Symmetry  3 ( irrep B2  in C2v )

   1.999999576

 Symmetry  4 ( irrep A2  in C2v )

   1.999877705   1.999999999


 --- MACRO ITERATION 11 ---
 --------------------------

 2-el. integral transformation level 3: Total CPU and WALL times (sec)      91.172      91.186

 Fock matrix screening setting for this macro iteration: 10^( -9)

 Total MCSCF energy       :          -434.247517624554121  (MACRO   11)

 - Nuclear repulsion      :           412.135415267066946
 - Inactive energy        :          -818.349386812472176
 - Active energy          :           -28.033546079148863

 Norm of total gradient   :             0.066603477136
 -    of CI gradient      :             0.064832202788
 -    of orbital gradient :             0.015258068300
      Virial theorem: -V/T =      1.987202
@    MULPOP   C       1.85; C   _1  0.10; C   _2  0.10; C   _1  0.53; C   _2  0.53; C       0.29; N       0.20; O   _1 -0.70; O   _2 -0.70; H   _1 -0.44; 
@             H   _2 -0.44; H   _1 -0.44; H   _2 -0.44; H      -0.44; 

 Residual norm when dim(red L) =   7
 NEO root     CSF        orbital          total
    1     0.00778528     0.00248484     0.00817221 converged

 (NEONEX) NEO vector is converged.

   --- OUTPUT FROM SIRCNO     Keyword = FD+NO 


 Occupations of CAS natural orbitals:

 Symmetry  1 ( irrep A1  in C2v )

   1.990942736   0.009553321

 Symmetry  2 ( irrep B1  in C2v )

   1.999625231

 Symmetry  3 ( irrep B2  in C2v )

   1.999999971

 Symmetry  4 ( irrep A2  in C2v )

   1.999878745   1.999999996


 --- MACRO ITERATION 12 ---
 --------------------------

 2-el. integral transformation level 3: Total CPU and WALL times (sec)      90.703      90.701

 Fock matrix screening setting for this macro iteration: 10^( -9)

 Total MCSCF energy       :          -434.248929482060873  (MACRO   12)

 - Nuclear repulsion      :           412.135415267066946
 - Inactive energy        :          -825.891703880111891
 - Active energy          :           -20.492640869015904

 Norm of total gradient   :             0.087731163999
 -    of CI gradient      :             0.086047392047
 -    of orbital gradient :             0.017105655746
      Virial theorem: -V/T =      1.986674
@    MULPOP   C       1.84; C   _1  0.11; C   _2  0.11; C   _1  0.53; C   _2  0.53; C       0.29; N       0.25; O   _1 -0.72; O   _2 -0.72; H   _1 -0.44; 
@             H   _2 -0.44; H   _1 -0.44; H   _2 -0.44; H      -0.44; 

 Residual norm when dim(red L) =   6
 NEO root     CSF        orbital          total
    1     0.00033848     0.01349261     0.01349686 converged

 (NEONEX) NEO vector is converged.

   --- OUTPUT FROM SIRCNO     Keyword = FD+NO 


 Occupations of CAS natural orbitals:

 Symmetry  1 ( irrep A1  in C2v )

   1.992406498   0.014911849

 Symmetry  2 ( irrep B1  in C2v )

   1.992824656

 Symmetry  3 ( irrep B2  in C2v )

   1.999999920

 Symmetry  4 ( irrep A2  in C2v )

   1.999857078   1.999999999


 --- MACRO ITERATION 13 ---
 --------------------------

 2-el. integral transformation level 3: Total CPU and WALL times (sec)      91.078      91.128

 Fock matrix screening setting for this macro iteration: 10^( -9)

 Total MCSCF energy       :          -434.239108440934615  (MACRO   13)

 - Nuclear repulsion      :           412.135415267066946
 - Inactive energy        :          -823.836808177052376
 - Active energy          :           -22.537715530949210

 Norm of total gradient   :             0.431292930185
 -    of CI gradient      :             0.421408907762
 -    of orbital gradient :             0.091804815160
      Virial theorem: -V/T =      1.985537
@    MULPOP   C       1.77; C   _1  0.14; C   _2  0.14; C   _1  0.52; C   _2  0.52; C       0.29; N       0.48; O   _1 -0.84; O   _2 -0.84; H   _1 -0.44; 
@             H   _2 -0.44; H   _1 -0.44; H   _2 -0.44; H      -0.44; 

 (SIRSTP) Energy difference;
 actual, predicted and ratio:   0.009821041126258  -0.004694955516129   -2.091828

 (SIRSTP) step is too large -- backstep

   --- OUTPUT FROM SIRCNO     Keyword = FD+NO 


 Occupations of CAS natural orbitals:

 Symmetry  1 ( irrep A1  in C2v )

   1.992170207   0.012946436

 Symmetry  2 ( irrep B1  in C2v )

   1.995021349

 Symmetry  3 ( irrep B2  in C2v )

   1.999999959

 Symmetry  4 ( irrep A2  in C2v )

   1.999862051   1.999999998


 Optimization control: Step was too large, we backstep


 --- MACRO ITERATION 13 BACKSTEP NO.  1 ---

 2-el. integral transformation level 3: Total CPU and WALL times (sec)      90.719      90.720

 Fock matrix screening setting for this macro iteration: 10^( -9)

 Total MCSCF energy       :          -434.247614444412534  (MACRO   13)

 - Nuclear repulsion      :           412.135415267066946
 - Inactive energy        :          -825.341344262737493
 - Active energy          :           -21.041685448741994

 Norm of total gradient   :             0.159560128024
 -    of CI gradient      :             0.153148718075
 -    of orbital gradient :             0.044776161146
      Virial theorem: -V/T =      1.985716
@    MULPOP   C       1.79; C   _1  0.13; C   _2  0.13; C   _1  0.52; C   _2  0.52; C       0.29; N       0.42; O   _1 -0.81; O   _2 -0.81; H   _1 -0.44; 
@             H   _2 -0.44; H   _1 -0.44; H   _2 -0.44; H      -0.44; 

 (SIRSTP) Energy difference;
 actual, predicted and ratio:   0.001315037648340  -0.003365238938712   -0.390771

 (SIRSTP) step is too large -- backstep

   --- OUTPUT FROM SIRCNO     Keyword = FD+NO 


 Occupations of CAS natural orbitals:

 Symmetry  1 ( irrep A1  in C2v )

   1.992005968   0.011841132

 Symmetry  2 ( irrep B1  in C2v )

   1.996287530

 Symmetry  3 ( irrep B2  in C2v )

   1.999999977

 Symmetry  4 ( irrep A2  in C2v )

   1.999865395   1.999999997


 Optimization control: Step was too large, we backstep


 --- MACRO ITERATION 13 BACKSTEP NO.  2 ---

 2-el. integral transformation level 3: Total CPU and WALL times (sec)      91.938      91.950

 Fock matrix screening setting for this macro iteration: 10^( -9)

 Total MCSCF energy       :          -434.250041277883099  (MACRO   13)

 - Nuclear repulsion      :           412.135415267066946
 - Inactive energy        :          -826.033496116811193
 - Active energy          :           -20.351960428138835

 Norm of total gradient   :             0.051407669192
 -    of CI gradient      :             0.043811793877
 -    of orbital gradient :             0.026893775657
      Virial theorem: -V/T =      1.985897
@    MULPOP   C       1.80; C   _1  0.13; C   _2  0.13; C   _1  0.53; C   _2  0.53; C       0.29; N       0.38; O   _1 -0.78; O   _2 -0.78; H   _1 -0.44; 
@             H   _2 -0.44; H   _1 -0.44; H   _2 -0.44; H      -0.44; 

 Residual norm when dim(red L) =   7
 NEO root     CSF        orbital          total
    1     0.00477191     0.00277480     0.00552002 converged

 (NEONEX) NEO vector is converged.

   --- OUTPUT FROM SIRCNO     Keyword = FD+NO 


 Occupations of CAS natural orbitals:

 Symmetry  1 ( irrep A1  in C2v )

   1.993243669   0.017393783

 Symmetry  2 ( irrep B1  in C2v )

   1.989518201

 Symmetry  3 ( irrep B2  in C2v )

   1.999999626

 Symmetry  4 ( irrep A2  in C2v )

   1.999844725   1.999999996


 --- MACRO ITERATION 14 ---
 --------------------------

 2-el. integral transformation level 3: Total CPU and WALL times (sec)      91.203      91.223

 Fock matrix screening setting for this macro iteration: 10^( -9)

 Total MCSCF energy       :          -434.248101506487558  (MACRO   14)

 - Nuclear repulsion      :           412.135415267066946
 - Inactive energy        :          -826.528722410842420
 - Active energy          :           -19.854794362712084

 Norm of total gradient   :             0.154970326714
 -    of CI gradient      :             0.144894558636
 -    of orbital gradient :             0.054966981359
      Virial theorem: -V/T =      1.986052
@    MULPOP   C       1.77; C   _1  0.15; C   _2  0.15; C   _1  0.52; C   _2  0.52; C       0.30; N       0.48; O   _1 -0.84; O   _2 -0.84; H   _1 -0.44; 
@             H   _2 -0.44; H   _1 -0.44; H   _2 -0.44; H      -0.44; 

 (SIRSTP) Energy difference;
 actual, predicted and ratio:   0.001939771395541  -0.002671017254164   -0.726229

 (SIRSTP) step is too large -- backstep

   --- OUTPUT FROM SIRCNO     Keyword = FD+NO 


 Occupations of CAS natural orbitals:

 Symmetry  1 ( irrep A1  in C2v )

   1.992918585   0.014549727

 Symmetry  2 ( irrep B1  in C2v )

   1.992677060

 Symmetry  3 ( irrep B2  in C2v )

   1.999999789

 Symmetry  4 ( irrep A2  in C2v )

   1.999854839   2.000000000


 Optimization control: Step was too large, we backstep


 --- MACRO ITERATION 14 BACKSTEP NO.  1 ---

 2-el. integral transformation level 3: Total CPU and WALL times (sec)      90.766      90.846

 Fock matrix screening setting for this macro iteration: 10^( -9)

 Total MCSCF energy       :          -434.250720153712621  (MACRO   14)

 - Nuclear repulsion      :           412.135415267066946
 - Inactive energy        :          -826.726483561722489
 - Active energy          :           -19.659651859057057

 Norm of total gradient   :             0.060477771225
 -    of CI gradient      :             0.056233566979
 -    of orbital gradient :             0.022256386884
      Virial theorem: -V/T =      1.985949
@    MULPOP   C       1.78; C   _1  0.14; C   _2  0.14; C   _1  0.52; C   _2  0.52; C       0.29; N       0.45; O   _1 -0.82; O   _2 -0.82; H   _1 -0.44; 
@             H   _2 -0.44; H   _1 -0.44; H   _2 -0.44; H      -0.44; 

 Residual norm when dim(red L) =   5
 NEO root     CSF        orbital          total
    1     0.00118758     0.00654434     0.00665122 converged

 (NEONEX) NEO vector is converged.

   --- OUTPUT FROM SIRCNO     Keyword = FD+NO 


 Occupations of CAS natural orbitals:

 Symmetry  1 ( irrep A1  in C2v )

   1.993008023   0.012972889

 Symmetry  2 ( irrep B1  in C2v )

   1.994168657

 Symmetry  3 ( irrep B2  in C2v )

   1.999999829

 Symmetry  4 ( irrep A2  in C2v )

   1.999850603   2.000000000


 --- MACRO ITERATION 15 ---
 --------------------------

 2-el. integral transformation level 3: Total CPU and WALL times (sec)      90.953      90.959

 Fock matrix screening setting for this macro iteration: 10^( -9)

 Total MCSCF energy       :          -434.251348921772205  (MACRO   15)

 - Nuclear repulsion      :           412.135415267066946
 - Inactive energy        :          -826.967487821933901
 - Active energy          :           -19.419276366905265

 Norm of total gradient   :             0.011406269500
 -    of CI gradient      :             0.009392829233
 -    of orbital gradient :             0.006471301484
      Virial theorem: -V/T =      1.986124
@    MULPOP   C       1.79; C   _1  0.14; C   _2  0.14; C   _1  0.52; C   _2  0.52; C       0.29; N       0.44; O   _1 -0.83; O   _2 -0.83; H   _1 -0.44; 
@             H   _2 -0.44; H   _1 -0.44; H   _2 -0.44; H      -0.44; 

 Residual norm when dim(red L) =   8
 NEO root     CSF        orbital          total
    1     0.00020754     0.00009752     0.00022931 converged

 (NEONEX) NEO vector is converged.

   --- OUTPUT FROM SIRCNO     Keyword = FD+NO 


 Occupations of CAS natural orbitals:

 Symmetry  1 ( irrep A1  in C2v )

   1.992930446   0.012592823

 Symmetry  2 ( irrep B1  in C2v )

   1.994634256

 Symmetry  3 ( irrep B2  in C2v )

   1.999999838

 Symmetry  4 ( irrep A2  in C2v )

   1.999842637   2.000000000


 --- MACRO ITERATION 16 ---
 --------------------------

 2-el. integral transformation level 3: Total CPU and WALL times (sec)      91.047      91.103

 Fock matrix screening setting for this macro iteration: 10^( -9)

 Total MCSCF energy       :          -434.251371285196171  (MACRO   16)

 - Nuclear repulsion      :           412.135415267066946
 - Inactive energy        :          -827.020155049622304
 - Active energy          :           -19.366631502640800

 Norm of total gradient   :             0.000424781813
 -    of CI gradient      :             0.000386169268
 -    of orbital gradient :             0.000176954471
      Virial theorem: -V/T =      1.986190
@    MULPOP   C       1.78; C   _1  0.14; C   _2  0.14; C   _1  0.52; C   _2  0.52; C       0.29; N       0.44; O   _1 -0.82; O   _2 -0.82; H   _1 -0.44; 
@             H   _2 -0.44; H   _1 -0.44; H   _2 -0.44; H      -0.44; 

 Residual norm when dim(red L) =  24
 NEO root     CSF        orbital          total
    1     0.00003155     0.00001732     0.00003599 converged

 (NEONEX) NEO vector is converged.

   --- OUTPUT FROM SIRCNO     Keyword = FD+NO 


 Occupations of CAS natural orbitals:

 Symmetry  1 ( irrep A1  in C2v )

   1.992924289   0.012577581

 Symmetry  2 ( irrep B1  in C2v )

   1.994654696

 Symmetry  3 ( irrep B2  in C2v )

   1.999998508

 Symmetry  4 ( irrep A2  in C2v )

   1.999844927   2.000000000


 --- MACRO ITERATION 17 ---
 --------------------------

 2-el. integral transformation level 3: Total CPU and WALL times (sec)      91.172      91.205

 Fock matrix screening setting for this macro iteration: 10^( -9)

 Total MCSCF energy       :          -434.251375568469939  (MACRO   17)

 - Nuclear repulsion      :           412.135415267066946
 - Inactive energy        :          -826.494306160011661
 - Active energy          :           -19.892484675525242

 Norm of total gradient   :             0.002988111266
 -    of CI gradient      :             0.002987836921
 -    of orbital gradient :             0.000040490391
      Virial theorem: -V/T =      1.986116
@    MULPOP   C       1.90; C   _1  0.18; C   _2  0.18; C   _1  0.53; C   _2  0.53; C       0.35; N       0.22; O   _1 -0.85; O   _2 -0.85; H   _1 -0.44; 
@             H   _2 -0.44; H   _1 -0.44; H   _2 -0.44; H      -0.44; 

 Residual norm when dim(red L) =   8
 NEO root     CSF        orbital          total
    1     0.00022863     0.00007641     0.00024106 converged

 (NEONEX) NEO vector is converged.

   --- OUTPUT FROM SIRCNO     Keyword = FD+NO 


 Occupations of CAS natural orbitals:

 Symmetry  1 ( irrep A1  in C2v )

   1.992922231   0.012609932

 Symmetry  2 ( irrep B1  in C2v )

   1.994655650

 Symmetry  3 ( irrep B2  in C2v )

   1.999967436

 Symmetry  4 ( irrep A2  in C2v )

   1.999844750   2.000000000


 --- MACRO ITERATION 18 ---
 --------------------------

 2-el. integral transformation level 3: Total CPU and WALL times (sec)      90.859      90.900

 Fock matrix screening setting for this macro iteration: 10^( -9)

 Total MCSCF energy       :          -434.251422211283227  (MACRO   18)

 - Nuclear repulsion      :           412.135415267066946
 - Inactive energy        :          -825.234380503433840
 - Active energy          :           -21.152456974916340

 Norm of total gradient   :             0.003621080129
 -    of CI gradient      :             0.003611633854
 -    of orbital gradient :             0.000261385174
      Virial theorem: -V/T =      1.982491
@    MULPOP   C       2.25; C   _1  0.45; C   _2  0.45; C   _1  0.80; C   _2  0.80; C       0.52; N      -0.44; O   _1 -1.32; O   _2 -1.32; H   _1 -0.44; 
@             H   _2 -0.44; H   _1 -0.44; H   _2 -0.44; H      -0.44; 

 Residual norm when dim(red L) =   8
 NEO root     CSF        orbital          total
    1     0.00047189     0.00031000     0.00056461 converged

 (NEONEX) NEO vector is converged.

   --- OUTPUT FROM SIRCNO     Keyword = FD+NO 


 Occupations of CAS natural orbitals:

 Symmetry  1 ( irrep A1  in C2v )

   1.992969417   0.012797441

 Symmetry  2 ( irrep B1  in C2v )

   1.994599005

 Symmetry  3 ( irrep B2  in C2v )

   1.999769575

 Symmetry  4 ( irrep A2  in C2v )

   1.999864568   1.999999995


 --- MACRO ITERATION 19 ---
 --------------------------

 2-el. integral transformation level 3: Total CPU and WALL times (sec)      94.000      94.030

 Fock matrix screening setting for this macro iteration: 10^( -9)

 Total MCSCF energy       :          -434.251552096619776  (MACRO   19)

 - Nuclear repulsion      :           412.135415267066946
 - Inactive energy        :          -823.781190180715839
 - Active energy          :           -22.605777182970897

 Norm of total gradient   :             0.004450009237
 -    of CI gradient      :             0.004419287204
 -    of orbital gradient :             0.000521998871
      Virial theorem: -V/T =      1.982169
@    MULPOP   C       2.26; C   _1  0.45; C   _2  0.45; C   _1  0.83; C   _2  0.83; C       0.56; N      -0.46; O   _1 -1.36; O   _2 -1.36; H   _1 -0.44; 
@             H   _2 -0.44; H   _1 -0.44; H   _2 -0.44; H      -0.44; 

 Residual norm when dim(red L) =   8
 NEO root     CSF        orbital          total
    1     0.00040295     0.00019331     0.00044692 converged

 (NEONEX) NEO vector is converged.

   --- OUTPUT FROM SIRCNO     Keyword = FD+NO 


 Occupations of CAS natural orbitals:

 Symmetry  1 ( irrep A1  in C2v )

   1.993006003   0.012795440

 Symmetry  2 ( irrep B1  in C2v )

   1.994574793

 Symmetry  3 ( irrep B2  in C2v )

   1.999749360

 Symmetry  4 ( irrep A2  in C2v )

   1.999874405   1.999999999


 --- MACRO ITERATION 20 ---
 --------------------------

 2-el. integral transformation level 3: Total CPU and WALL times (sec)      92.328      92.362

 Fock matrix screening setting for this macro iteration: 10^( -9)

 Total MCSCF energy       :          -434.251575223493035  (MACRO   20)

 - Nuclear repulsion      :           412.135415267066946
 - Inactive energy        :          -823.686123162307695
 - Active energy          :           -22.700867328252290

 Norm of total gradient   :             0.002719358621
 -    of CI gradient      :             0.002710436650
 -    of orbital gradient :             0.000220101064
      Virial theorem: -V/T =      1.982151
@    MULPOP   C       2.34; C   _1  0.47; C   _2  0.47; C   _1  0.80; C   _2  0.80; C       0.51; N      -0.44; O   _1 -1.37; O   _2 -1.37; H   _1 -0.44; 
@             H   _2 -0.44; H   _1 -0.44; H   _2 -0.44; H      -0.44; 

 Residual norm when dim(red L) =  11
 NEO root     CSF        orbital          total
    1     0.00000567     0.00003821     0.00003863 converged

 (NEONEX) NEO vector is converged.

   --- OUTPUT FROM SIRCNO     Keyword = FD+NO 


 Occupations of CAS natural orbitals:

 Symmetry  1 ( irrep A1  in C2v )

[...]
      ----------------------------------------------------------------
         1    3.90917D+00  8.28D-01  3.82D+00  6.94D+01    0.00000D+00

 ** RSPCTL MICROITERATION NUMBER    4

       No.  Residual tot.,    conf., and orb.    Bnorm      Frequency 
      ----------------------------------------------------------------
         1    1.96539D+00  8.85D-01  1.75D+00  6.99D+01    0.00000D+00

 ** RSPCTL MICROITERATION NUMBER    5

       No.  Residual tot.,    conf., and orb.    Bnorm      Frequency 
      ----------------------------------------------------------------
         1    1.19800D+00  9.02D-01  7.89D-01  7.01D+01    0.00000D+00

 ** RSPCTL MICROITERATION NUMBER    6

       No.  Residual tot.,    conf., and orb.    Bnorm      Frequency 
      ----------------------------------------------------------------
         1    8.05436D-01  3.95D-04  8.05D-01  7.01D+01    0.00000D+00

 ** RSPCTL MICROITERATION NUMBER    7

       No.  Residual tot.,    conf., and orb.    Bnorm      Frequency 
      ----------------------------------------------------------------
         1    4.10142D-01  8.12D-02  4.02D-01  7.02D+01    0.00000D+00

 ** RSPCTL MICROITERATION NUMBER    8

       No.  Residual tot.,    conf., and orb.    Bnorm      Frequency 
      ----------------------------------------------------------------
         1    2.02792D-01  1.23D-01  1.61D-01  7.02D+01    0.00000D+00

 ** RSPCTL MICROITERATION NUMBER    9

       No.  Residual tot.,    conf., and orb.    Bnorm      Frequency 
      ----------------------------------------------------------------
         1    1.51026D-01  1.39D-01  5.99D-02  7.02D+01    0.00000D+00

 ** RSPCTL MICROITERATION NUMBER   10

       No.  Residual tot.,    conf., and orb.    Bnorm      Frequency 
      ----------------------------------------------------------------
         1    7.54083D-02  4.83D-04  7.54D-02  7.02D+01    0.00000D+00

 ** RSPCTL MICROITERATION NUMBER   11

       No.  Residual tot.,    conf., and orb.    Bnorm      Frequency 
      ----------------------------------------------------------------
         1    4.08445D-02  6.50D-03  4.03D-02  7.02D+01    0.00000D+00

 *** THE REQUESTED    1 SOLUTION VECTORS CONVERGED

 Convergence of RSP solution vectors, threshold = 1.00D-03
 ---------------------------------------------------------------
 (dimension of paired reduced space:   24)
 RSP solution vector no.    1; norm of residual   5.82D-04

 *** RSPCTL MICROITERATIONS CONVERGED
    XDIPLEN     XDIPLEN      freq1     freq2                Norm
 ---------------------------------------------------------------
                          0.000000  0.000000         70.18352579


 Perturbation symmetry.     KSYMOP:       1
 Perturbation spin symmetry.TRPLET:       F
 Orbital variables.         KZWOPT:    2787
 Configuration variables.   KZCONF:      10
 Total number of variables. KZVAR :    2797


 CRLRV2 -- linear response calc for sym:  1
 CRLRV2 -- operator label1: YDIPLEN 
 CRLRV2 -- operator label2: YDIPLEN 
 CRLRV2 -- freqr1 :   0.000000D+00
 CRLRV2 -- freqr2 :   0.000000D+00



 ---  SOLVING SETS OF LINEAR EQUATIONS FOR LINEAR RESPONSE PROPERTIES ---

 Operator symmetry = 1  ( A1 ); triplet =   F


 ** RSPCTL MICROITERATION NUMBER    1

       No.  Residual tot.,    conf., and orb.    Bnorm      Frequency 
      ----------------------------------------------------------------
         1    1.98867D+01  1.89D+00  1.98D+01  6.32D+01    0.00000D+00

 ** RSPCTL MICROITERATION NUMBER    2

       No.  Residual tot.,    conf., and orb.    Bnorm      Frequency 
      ----------------------------------------------------------------
         1    6.63946D+00  8.77D-01  6.58D+00  6.55D+01    0.00000D+00

 ** RSPCTL MICROITERATION NUMBER    3

       No.  Residual tot.,    conf., and orb.    Bnorm      Frequency 
      ----------------------------------------------------------------
         1    2.26289D+00  1.10D+00  1.98D+00  6.62D+01    0.00000D+00

 ** RSPCTL MICROITERATION NUMBER    4

       No.  Residual tot.,    conf., and orb.    Bnorm      Frequency 
      ----------------------------------------------------------------
         1    1.32691D+00  1.11D+00  7.35D-01  6.63D+01    0.00000D+00

 ** RSPCTL MICROITERATION NUMBER    5

       No.  Residual tot.,    conf., and orb.    Bnorm      Frequency 
      ----------------------------------------------------------------
         1    7.73529D-01  2.73D-03  7.74D-01  6.64D+01    0.00000D+00

 ** RSPCTL MICROITERATION NUMBER    6

       No.  Residual tot.,    conf., and orb.    Bnorm      Frequency 
      ----------------------------------------------------------------
         1    2.68855D-01  2.30D-02  2.68D-01  6.64D+01    0.00000D+00

 ** RSPCTL MICROITERATION NUMBER    7

       No.  Residual tot.,    conf., and orb.    Bnorm      Frequency 
      ----------------------------------------------------------------
         1    1.36798D-01  2.87D-02  1.34D-01  6.64D+01    0.00000D+00

 ** RSPCTL MICROITERATION NUMBER    8

       No.  Residual tot.,    conf., and orb.    Bnorm      Frequency 
      ----------------------------------------------------------------
         1    6.30324D-02  3.15D-02  5.46D-02  6.64D+01    0.00000D+00

 *** THE REQUESTED    1 SOLUTION VECTORS CONVERGED

 Convergence of RSP solution vectors, threshold = 1.00D-03
 ---------------------------------------------------------------
 (dimension of paired reduced space:   18)
 RSP solution vector no.    1; norm of residual   9.49D-04

 *** RSPCTL MICROITERATIONS CONVERGED
    YDIPLEN     YDIPLEN      freq1     freq2                Norm
 ---------------------------------------------------------------
                          0.000000  0.000000         66.42942050
 INFO: Inact-act orbital rotation           1         256  pruned
 INFO: Inact-act orbital rotation           2         256  pruned
 INFO: Inact-act orbital rotation           3         256  pruned
 INFO: Inact-act orbital rotation           4         256  pruned
 INFO: Inact-act orbital rotation           5         256  pruned
 INFO: Inact-act orbital rotation           6         256  pruned
 INFO: Inact-act orbital rotation           7         256  pruned
 INFO: Inact-act orbital rotation           8         256  pruned
 INFO: Inact-act orbital rotation           9         256  pruned
 INFO: Inact-act orbital rotation          10         256  pruned
 INFO: Inact-act orbital rotation          11         256  pruned
 INFO: Inact-act orbital rotation          12         256  pruned
 INFO: Inact-act orbital rotation          13         256  pruned
 INFO: Inact-act orbital rotation          14         256  pruned
 INFO: Inact-act orbital rotation          15         256  pruned

INFO:   15 redundant orbital rotations pruned.


 Perturbation symmetry.     KSYMOP:       4
 Perturbation spin symmetry.TRPLET:       F
 Orbital variables.         KZWOPT:    1502
 Configuration variables.   KZCONF:      10
 Total number of variables. KZVAR :    1512


 CRLRV2 -- linear response calc for sym:  4
 CRLRV2 -- operator label1: YDIPLEN 
 CRLRV2 -- operator label2: XDIPLEN 
 CRLRV2 -- freqr1 :   0.000000D+00
 CRLRV2 -- freqr2 :   0.000000D+00



 ---  SOLVING SETS OF LINEAR EQUATIONS FOR LINEAR RESPONSE PROPERTIES ---

 Operator symmetry = 4  ( A2 ); triplet =   F


 ** RSPCTL MICROITERATION NUMBER    1

       No.  Residual tot.,    conf., and orb.    Bnorm      Frequency 
      ----------------------------------------------------------------
         1    1.28975D+01  1.32D-01  1.29D+01  4.93D+01    0.00000D+00

 ** RSPCTL MICROITERATION NUMBER    2

       No.  Residual tot.,    conf., and orb.    Bnorm      Frequency 
      ----------------------------------------------------------------
         1    3.67767D+00  1.42D-01  3.67D+00  5.91D+01    0.00000D+00

 ** RSPCTL MICROITERATION NUMBER    3

       No.  Residual tot.,    conf., and orb.    Bnorm      Frequency 
      ----------------------------------------------------------------
         1    1.04232D+00  2.37D-01  1.02D+00  7.85D+01    0.00000D+00

 ** RSPCTL MICROITERATION NUMBER    4

       No.  Residual tot.,    conf., and orb.    Bnorm      Frequency 
      ----------------------------------------------------------------
         1    1.65666D+01  1.51D+00  1.65D+01  8.08D+02    0.00000D+00

 ** RSPCTL MICROITERATION NUMBER    5

 *** INFO, negative eigenvalues in reduced matrix. Symmetry  4,  triplet       F Dimension of reduced matrix =    12

 GP * SOLUTION vector at frequency     0.00000 a.u.
 after    6 linear transformations is      1.91063761D+03
 INERTIA (POS,ZER,NEG) of reduced matrix is   11    0    1
 Determinant of reduced matrix is -7.12 * 10 **-10.0

       No.  Residual tot.,    conf., and orb.    Bnorm      Frequency 
      ----------------------------------------------------------------
         1    1.04613D+00  3.22D-01  9.95D-01  6.79D+01    0.00000D+00

 ** RSPCTL MICROITERATION NUMBER    6

 *** INFO, negative eigenvalues in reduced matrix. Symmetry  4,  triplet       F Dimension of reduced matrix =    14

 GP * SOLUTION vector at frequency     0.00000 a.u.
 after    7 linear transformations is      1.91115955D+03
 INERTIA (POS,ZER,NEG) of reduced matrix is   13    0    1
 Determinant of reduced matrix is -1.15 * 10 **-11.0

       No.  Residual tot.,    conf., and orb.    Bnorm      Frequency 
      ----------------------------------------------------------------
         1    6.22111D-01  3.56D-01  5.10D-01  6.08D+01    0.00000D+00

 ** RSPCTL MICROITERATION NUMBER    7

 *** INFO, negative eigenvalues in reduced matrix. Symmetry  4,  triplet       F Dimension of reduced matrix =    16

 GP * SOLUTION vector at frequency     0.00000 a.u.
 after    8 linear transformations is      1.91139849D+03
 INERTIA (POS,ZER,NEG) of reduced matrix is   15    0    1
 Determinant of reduced matrix is -5.19 * 10 **-13.0

       No.  Residual tot.,    conf., and orb.    Bnorm      Frequency 
      ----------------------------------------------------------------
         1    5.61828D-01  3.64D-01  4.28D-01  6.67D+01    0.00000D+00

 ** RSPCTL MICROITERATION NUMBER    8

 *** INFO, negative eigenvalues in reduced matrix. Symmetry  4,  triplet       F Dimension of reduced matrix =    18

 GP * SOLUTION vector at frequency     0.00000 a.u.
 after    9 linear transformations is      1.91160070D+03
 INERTIA (POS,ZER,NEG) of reduced matrix is   17    0    1
 Determinant of reduced matrix is -5.12 * 10 **-14.0

       No.  Residual tot.,    conf., and orb.    Bnorm      Frequency 
      ----------------------------------------------------------------
         1    5.92970D-01  3.49D-01  4.79D-01  8.75D+01    0.00000D+00

 ** RSPCTL MICROITERATION NUMBER    9

 *** INFO, negative eigenvalues in reduced matrix. Symmetry  4,  triplet       F Dimension of reduced matrix =    20

 GP * SOLUTION vector at frequency     0.00000 a.u.
 after   10 linear transformations is      1.91190595D+03
 INERTIA (POS,ZER,NEG) of reduced matrix is   19    0    1
 Determinant of reduced matrix is -1.53 * 10 **-15.0

       No.  Residual tot.,    conf., and orb.    Bnorm      Frequency 
      ----------------------------------------------------------------
         1    7.80212D-01  3.51D-01  6.97D-01  1.49D+02    0.00000D+00

 ** RSPCTL MICROITERATION NUMBER   10

 *** INFO, negative eigenvalues in reduced matrix. Symmetry  4,  triplet       F Dimension of reduced matrix =    22

 GP * SOLUTION vector at frequency     0.00000 a.u.
 after   11 linear transformations is      1.91325328D+03
 INERTIA (POS,ZER,NEG) of reduced matrix is   21    0    1
 Determinant of reduced matrix is -2.23 * 10 **-17.0

       No.  Residual tot.,    conf., and orb.    Bnorm      Frequency 
      ----------------------------------------------------------------
         1    1.79821D+00  8.28D-01  1.60D+00  4.96D+02    0.00000D+00

 ** RSPCTL MICROITERATION NUMBER   11

 *** INFO, negative eigenvalues in reduced matrix. Symmetry  4,  triplet       F Dimension of reduced matrix =    24

 GP * SOLUTION vector at frequency     0.00000 a.u.
 after   12 linear transformations is      1.91493559D+03
 INERTIA (POS,ZER,NEG) of reduced matrix is   23    0    1
 Determinant of reduced matrix is -6.58 * 10 **-19.0

       No.  Residual tot.,    conf., and orb.    Bnorm      Frequency 
      ----------------------------------------------------------------
         1    1.82451D+00  1.63D+00  8.13D-01  9.45D+02    0.00000D+00

 ** RSPCTL MICROITERATION NUMBER   12

 *** INFO, negative eigenvalues in reduced matrix. Symmetry  4,  triplet       F Dimension of reduced matrix =    26

 GP * SOLUTION vector at frequency     0.00000 a.u.
 after   13 linear transformations is      1.91748918D+03
 INERTIA (POS,ZER,NEG) of reduced matrix is   25    0    1
 Determinant of reduced matrix is -1.25 * 10 **-18.0

       No.  Residual tot.,    conf., and orb.    Bnorm      Frequency 
      ----------------------------------------------------------------
         1    1.53611D+00  2.93D-01  1.51D+00  1.63D+03    0.00000D+00

 *** THE REQUESTED    1 SOLUTION VECTORS CONVERGED

 Convergence of RSP solution vectors, threshold = 1.00D-03
 ---------------------------------------------------------------
 (dimension of paired reduced space:   26)
 RSP solution vector no.    1; norm of residual   9.44D-04

 *** RSPCTL MICROITERATIONS CONVERGED
    YDIPLEN     XDIPLEN      freq1     freq2                Norm
 ---------------------------------------------------------------
                          0.000000  0.000000       1627.84180995
  Time used in CRVEC2     is     50 minutes 58 seconds


 ----- CALCULATING CONTRIBUTIONS TO SECOND HYPERPOLARIZABILITY -----


   Contribution                Term         Accumulated
 ------------------------------------------------------
 Na T[4] Nb Nc Nd    -9573.47825824      -9573.47825824
 Na T[3] Nx Nyz      10604.79140695       1031.31314871
 Na X[3] Ny Nz       17088.55233898      18119.86548769
 Nx A[3] Ny Nz        5696.18411299      23816.04960068
 Na X[2] Nyz        -24784.56745809       -968.51785741
 Nx A[2] Nyz        -24769.11858038     -25737.63643779

@ Cubic response function value in a.u. for
@ A operator, symmetry, frequency:   ZDIPLEN    1 -0.000000
@ B operator, symmetry, frequency:   ZDIPLEN    1  0.000000
@ C operator, symmetry, frequency:   ZDIPLEN    1  0.000000
@ D operator, symmetry, frequency:   ZDIPLEN    1  0.000000

@ << A; B, C, D >>  =      -25737.63643779



   Contribution                Term         Accumulated
 ------------------------------------------------------
 Na T[4] Nb Nc Nd    -1871.15961060      -1871.15961060
 Na T[3] Nx Nyz        576.77495093      -1294.38465967
 Na X[3] Ny Nz        2928.23981907       1633.85515940
 Nx A[3] Ny Nz        1271.69740627       2905.55256567
 Na X[2] Nyz         -2442.20670876        463.34585691
 Nx A[2] Nyz         -2156.85538508      -1693.50952817

@ Cubic response function value in a.u. for
@ A operator, symmetry, frequency:   XDIPLEN    2 -0.000000
@ B operator, symmetry, frequency:   XDIPLEN    2  0.000000
@ C operator, symmetry, frequency:   ZDIPLEN    1  0.000000
@ D operator, symmetry, frequency:   ZDIPLEN    1  0.000000

@ << A; B, C, D >>  =       -1693.50952817



   Contribution                Term         Accumulated
 ------------------------------------------------------
 Na T[4] Nb Nc Nd     -663.65147426       -663.65147426
 Na T[3] Nx Nyz        945.27257801        281.62110375
 Na X[3] Ny Nz        1216.10003636       1497.72114011
 Nx A[3] Ny Nz         605.20622708       2102.92736719
 Na X[2] Nyz         -2271.10256013       -168.17519294
 Nx A[2] Nyz         -2880.39542900      -3048.57062194

@ Cubic response function value in a.u. for
@ A operator, symmetry, frequency:   YDIPLEN    3 -0.000000
@ B operator, symmetry, frequency:   YDIPLEN    3  0.000000
@ C operator, symmetry, frequency:   ZDIPLEN    1  0.000000
@ D operator, symmetry, frequency:   ZDIPLEN    1  0.000000

@ << A; B, C, D >>  =       -3048.57062194



   Contribution                Term         Accumulated
 ------------------------------------------------------
 Na T[4] Nb Nc Nd    -5309.09153683      -5309.09153683
 Na T[3] Nx Nyz       4024.16804524      -1284.92349159
 Na X[3] Ny Nz        8294.22700703       7009.30351544
 Nx A[3] Ny Nz        2764.74233568       9774.04585111
 Na X[2] Nyz         -8551.86388165       1222.18196946
 Nx A[2] Nyz         -8595.75460023      -7373.57263077

@ Cubic response function value in a.u. for
@ A operator, symmetry, frequency:   XDIPLEN    2 -0.000000
@ B operator, symmetry, frequency:   XDIPLEN    2  0.000000
@ C operator, symmetry, frequency:   XDIPLEN    2  0.000000
@ D operator, symmetry, frequency:   XDIPLEN    2  0.000000

@ << A; B, C, D >>  =       -7373.57263077



   Contribution                Term         Accumulated
 ------------------------------------------------------
 Na T[4] Nb Nc Nd     -542.51224431       -542.51224431
 Na T[3] Nx Nyz        934.99499931        392.48275500
 Na X[3] Ny Nz         958.88317435       1351.36592935
 Nx A[3] Ny Nz         481.54623016       1832.91215951
 Na X[2] Nyz         -1891.66734366        -58.75518415
 Nx A[2] Nyz         -4035.69704870      -4094.45223285

@ Cubic response function value in a.u. for
@ A operator, symmetry, frequency:   YDIPLEN    3 -0.000000
@ B operator, symmetry, frequency:   YDIPLEN    3  0.000000
@ C operator, symmetry, frequency:   XDIPLEN    2  0.000000
@ D operator, symmetry, frequency:   XDIPLEN    2  0.000000

@ << A; B, C, D >>  =       -4094.45223285



   Contribution                Term         Accumulated
 ------------------------------------------------------
 Na T[4] Nb Nc Nd     -696.70188705       -696.70188705
 Na T[3] Nx Nyz       1601.00994168        904.30805463
 Na X[3] Ny Nz        2188.81827520       3093.12632983
 Nx A[3] Ny Nz         729.60609173       3822.73242156
 Na X[2] Nyz         -5940.96173353      -2118.22931197
 Nx A[2] Nyz         -6262.81598232      -8381.04529429

@ Cubic response function value in a.u. for
@ A operator, symmetry, frequency:   YDIPLEN    3 -0.000000
@ B operator, symmetry, frequency:   YDIPLEN    3  0.000000
@ C operator, symmetry, frequency:   YDIPLEN    3  0.000000
@ D operator, symmetry, frequency:   YDIPLEN    3  0.000000

@ << A; B, C, D >>  =       -8381.04529429



  Summary of gamma values for a set of frequencies
 -------------------------------------------------

@ B-freq:  0.000000
@ C-freq:  0.000000
@ D-freq:  0.000000

@ gamma(X;X,X,X)       7373.5726
@ gamma(X;X,Y,Y)       4094.4522
@ gamma(X;Y,Y,X)       4094.4522
@ gamma(X;Y,X,Y)       4094.4522
@ gamma(X;X,Z,Z)       1693.5095
@ gamma(X;Z,Z,X)       1693.5095
@ gamma(X;Z,X,Z)       1693.5095
@ gamma(Y;Y,X,X)       4094.4522
@ gamma(Y;X,X,Y)       4094.4522
@ gamma(Y;X,Y,X)       4094.4522
@ gamma(Y;Y,Y,Y)       8381.0453
@ gamma(Y;Y,Z,Z)       3048.5706
@ gamma(Y;Z,Z,Y)       3048.5706
@ gamma(Y;Z,Y,Z)       3048.5706
@ gamma(Z;Z,X,X)       1693.5095
@ gamma(Z;X,X,Z)       1693.5095
@ gamma(Z;X,Z,X)       1693.5095
@ gamma(Z;Z,Y,Y)       3048.5706
@ gamma(Z;Y,Y,Z)       3048.5706
@ gamma(Z;Y,Z,Y)       3048.5706
@ gamma(Z;Z,Z,Z)      25737.6364

@ Averaged gamma parallel to the applied field is     11833.063826

  Total CPU  time used in RESPONSE:   2 hours 31 minutes 21 seconds
  Total wall time used in RESPONSE:   2 hours 31 minutes 29 seconds


                   .-------------------------------------------.
                   | End of Dynamic Property Section (RESPONS) |
                   `-------------------------------------------'

  Total CPU  time used in DALTON:   4 hours 58 minutes 52 seconds
  Total wall time used in DALTON:   4 hours 59 minutes 13 seconds

 
     Date and time (Linux)  : Tue Jun 25 15:41:31 2019
     Host name              : Lab2-333-NPs                            
