

     ************************************************************************
     *************** Dalton - An Electronic Structure Program ***************
     ************************************************************************

    This is output from DALTON release Dalton2018.1 (2019)
         ( Web site: http://daltonprogram.org )

   ----------------------------------------------------------------------------

    NOTE:
     
    Dalton is an experimental code for the evaluation of molecular
    properties using (MC)SCF, DFT, CI, and CC wave functions.
    The authors accept no responsibility for the performance of
    the code or for the correctness of the results.
     
    The code (in whole or part) is provided under a licence and
    is not to be reproduced for further distribution without
    the written permission of the authors or their representatives.
     
    See the home page "http://daltonprogram.org" for further information.
     
    If results obtained with this code are published,
    the appropriate citations would be both of:
     
       K. Aidas, C. Angeli, K. L. Bak, V. Bakken, R. Bast,
       L. Boman, O. Christiansen, R. Cimiraglia, S. Coriani,
       P. Dahle, E. K. Dalskov, U. Ekstroem,
       T. Enevoldsen, J. J. Eriksen, P. Ettenhuber, B. Fernandez,
       L. Ferrighi, H. Fliegl, L. Frediani, K. Hald, A. Halkier,
       C. Haettig, H. Heiberg, T. Helgaker, A. C. Hennum,
       H. Hettema, E. Hjertenaes, S. Hoest, I.-M. Hoeyvik,
       M. F. Iozzi, B. Jansik, H. J. Aa. Jensen, D. Jonsson,
       P. Joergensen, J. Kauczor, S. Kirpekar,
       T. Kjaergaard, W. Klopper, S. Knecht, R. Kobayashi, H. Koch,
       J. Kongsted, A. Krapp, K. Kristensen, A. Ligabue,
       O. B. Lutnaes, J. I. Melo, K. V. Mikkelsen, R. H. Myhre,
       C. Neiss, C. B. Nielsen, P. Norman, J. Olsen,
       J. M. H. Olsen, A. Osted, M. J. Packer, F. Pawlowski,
       T. B. Pedersen, P. F. Provasi, S. Reine, Z. Rinkevicius,
       T. A. Ruden, K. Ruud, V. Rybkin, P. Salek, C. C. M. Samson,
       A. Sanchez de Meras, T. Saue, S. P. A. Sauer,
       B. Schimmelpfennig, K. Sneskov, A. H. Steindal,
       K. O. Sylvester-Hvid, P. R. Taylor, A. M. Teale,
       E. I. Tellgren, D. P. Tew, A. J. Thorvaldsen, L. Thoegersen,
       O. Vahtras, M. A. Watson, D. J. D. Wilson, M. Ziolkowski
       and H. Agren,
       "The Dalton quantum chemistry program system",
       WIREs Comput. Mol. Sci. 2014, 4:269–284 (doi: 10.1002/wcms.1172)
     
    and
     
       Dalton, a molecular electronic structure program,
       Release Dalton2018.1 (2019), see http://daltonprogram.org
   ----------------------------------------------------------------------------

    Authors in alphabetical order (major contribution(s) in parenthesis):

  Kestutis Aidas,           Vilnius University,           Lithuania   (QM/MM)
  Celestino Angeli,         University of Ferrara,        Italy       (NEVPT2)
  Keld L. Bak,              UNI-C,                        Denmark     (AOSOPPA, non-adiabatic coupling, magnetic properties)
  Vebjoern Bakken,          University of Oslo,           Norway      (DALTON; geometry optimizer, symmetry detection)
  Radovan Bast,             UiT The Arctic U. of Norway,  Norway      (DALTON installation and execution frameworks)
  Pablo Baudin,             University of Valencia,       Spain       (Cholesky excitation energies)
  Linus Boman,              NTNU,                         Norway      (Cholesky decomposition and subsystems)
  Ove Christiansen,         Aarhus University,            Denmark     (CC module)
  Renzo Cimiraglia,         University of Ferrara,        Italy       (NEVPT2)
  Sonia Coriani,            Technical Univ. of Denmark,   Denmark     (CC module, MCD in RESPONS)
  Janusz Cukras,            University of Trieste,        Italy       (MChD in RESPONS)
  Paal Dahle,               University of Oslo,           Norway      (Parallelization)
  Erik K. Dalskov,          UNI-C,                        Denmark     (SOPPA)
  Thomas Enevoldsen,        Univ. of Southern Denmark,    Denmark     (SOPPA)
  Janus J. Eriksen,         Aarhus University,            Denmark     (Polarizable embedding model, TDA)
  Rasmus Faber,             University of Copenhagen,     Denmark     (Vib.avg. NMR with SOPPA, parallel AO-SOPPA)
  Tobias Fahleson,          KTH Stockholm,                Sweden      (Damped cubic response)
  Berta Fernandez,          U. of Santiago de Compostela, Spain       (doublet spin, ESR in RESPONS)
  Lara Ferrighi,            Aarhus University,            Denmark     (PCM Cubic response)
  Heike Fliegl,             University of Oslo,           Norway      (CCSD(R12))
  Luca Frediani,            UiT The Arctic U. of Norway,  Norway      (PCM)
  Bin Gao,                  UiT The Arctic U. of Norway,  Norway      (Gen1Int library)
  Christof Haettig,         Ruhr-University Bochum,       Germany     (CC module)
  Kasper Hald,              Aarhus University,            Denmark     (CC module)
  Asger Halkier,            Aarhus University,            Denmark     (CC module)
  Frederik Beyer Hansen,    University of Copenhagen,     Denmark     (Parallel AO-SOPPA)
  Erik D. Hedegaard,        Univ. of Southern Denmark,    Denmark     (Polarizable embedding model, QM/MM)
  Hanne Heiberg,            University of Oslo,           Norway      (geometry analysis, selected one-electron integrals)
  Trygve Helgaker,          University of Oslo,           Norway      (DALTON; ABACUS, ERI, DFT modules, London, and much more)
  Alf Christian Hennum,     University of Oslo,           Norway      (Parity violation)
  Hinne Hettema,            University of Auckland,       New Zealand (quadratic response in RESPONS; SIRIUS supersymmetry)
  Eirik Hjertenaes,         NTNU,                         Norway      (Cholesky decomposition)
  Pi A. B. Haase,           University of Copenhagen,     Denmark     (Triplet AO-SOPPA)
  Maria Francesca Iozzi,    University of Oslo,           Norway      (RPA)
  Christoph Jacob           TU Braunschweig               Germany     (Frozen density embedding model)
  Brano Jansik              Technical Univ. of Ostrava    Czech Rep.  (DFT cubic response)
  Hans Joergen Aa. Jensen,  Univ. of Southern Denmark,    Denmark     (DALTON; SIRIUS, RESPONS, ABACUS modules, London, and much more)
  Dan Jonsson,              UiT The Arctic U. of Norway,  Norway      (cubic response in RESPONS module)
  Poul Joergensen,          Aarhus University,            Denmark     (RESPONS, ABACUS, and CC modules)
  Maciej Kaminski,          University of Warsaw,         Poland      (CPPh in RESPONS)
  Joanna Kauczor,           Linkoeping University,        Sweden      (Complex polarization propagator (CPP) module)
  Sheela Kirpekar,          Univ. of Southern Denmark,    Denmark     (Mass-velocity & Darwin integrals)
  Wim Klopper,              KIT Karlsruhe,                Germany     (R12 code in CC, SIRIUS, and ABACUS modules)
  Stefan Knecht,            ETH Zurich,                   Switzerland (Parallel CI and MCSCF)
  Rika Kobayashi,           Australian National Univ.,    Australia   (DIIS in CC, London in MCSCF)
  Henrik Koch,              NTNU,                         Norway      (CC module, Cholesky decomposition)
  Jacob Kongsted,           Univ. of Southern Denmark,    Denmark     (Polarizable embedding model, QM/MM)
  Andrea Ligabue,           University of Modena,         Italy       (CTOCD, AOSOPPA)
  Nanna H. List             Univ. of Southern Denmark,    Denmark     (Polarizable embedding model)
  Ola B. Lutnaes,           University of Oslo,           Norway      (DFT Hessian)
  Juan I. Melo,             University of Buenos Aires,   Argentina   (LRESC, Relativistic Effects on NMR Shieldings)
  Kurt V. Mikkelsen,        University of Copenhagen,     Denmark     (MC-SCRF and QM/MM)
  Rolf H. Myhre,            NTNU,                         Norway      (Subsystems and CC3)
  Christian Neiss,          Univ. Erlangen-Nuernberg,     Germany     (CCSD(R12))
  Christian B. Nielsen,     University of Copenhagen,     Denmark     (QM/MM)
  Patrick Norman,           KTH Stockholm,                Sweden      (Cubic response and complex frequency response in RESPONS)
  Jeppe Olsen,              Aarhus University,            Denmark     (SIRIUS CI/density modules)
  Jogvan Magnus H. Olsen,   Univ. of Southern Denmark,    Denmark     (Polarizable embedding model, QM/MM)
  Anders Osted,             Copenhagen University,        Denmark     (QM/MM)
  Martin J. Packer,         University of Sheffield,      UK          (SOPPA)
  Filip Pawlowski,          Kazimierz Wielki University,  Poland      (CC3)
  Morten N. Pedersen,       Univ. of Southern Denmark,    Denmark     (Polarizable embedding model)
  Thomas B. Pedersen,       University of Oslo,           Norway      (Cholesky decomposition)
  Patricio F. Provasi,      University of Northeastern,   Argentina   (Analysis of coupling constants in localized orbitals)
  Zilvinas Rinkevicius,     KTH Stockholm,                Sweden      (open-shell DFT, ESR)
  Elias Rudberg,            KTH Stockholm,                Sweden      (DFT grid and basis info)
  Torgeir A. Ruden,         University of Oslo,           Norway      (Numerical derivatives in ABACUS)
  Kenneth Ruud,             UiT The Arctic U. of Norway,  Norway      (DALTON; ABACUS magnetic properties and much more)
  Pawel Salek,              KTH Stockholm,                Sweden      (DALTON; DFT code)
  Claire C. M. Samson       University of Karlsruhe       Germany     (Boys localization, r12 integrals in ERI)
  Alfredo Sanchez de Meras, University of Valencia,       Spain       (CC module, Cholesky decomposition)
  Trond Saue,               Paul Sabatier University,     France      (direct Fock matrix construction)
  Stephan P. A. Sauer,      University of Copenhagen,     Denmark     (SOPPA(CCSD), SOPPA prop., AOSOPPA, vibrational g-factors)
  Andre S. P. Gomes,        CNRS/Universite de Lille,     France      (Frozen density embedding model)
  Bernd Schimmelpfennig,    Forschungszentrum Karlsruhe,  Germany     (AMFI module)
  Kristian Sneskov,         Aarhus University,            Denmark     (Polarizable embedding model, QM/MM)
  Arnfinn H. Steindal,      UiT The Arctic U. of Norway,  Norway      (parallel QM/MM, Polarizable embedding model)
  Casper Steinmann,         Univ. of Southern Denmark,    Denmark     (QFIT, Polarizable embedding model)
  K. O. Sylvester-Hvid,     University of Copenhagen,     Denmark     (MC-SCRF)
  Peter R. Taylor,          VLSCI/Univ. of Melbourne,     Australia   (Symmetry handling ABACUS, integral transformation)
  Andrew M. Teale,          University of Nottingham,     England     (DFT-AC, DFT-D)
  David P. Tew,             University of Bristol,        England     (CCSD(R12))
  Olav Vahtras,             KTH Stockholm,                Sweden      (triplet response, spin-orbit, ESR, TDDFT, open-shell DFT)
  Lucas Visscher,           Vrije Universiteit Amsterdam, Netherlands (Frozen density embedding model)
  David J. Wilson,          La Trobe University,          Australia   (DFT Hessian and DFT magnetizabilities)
  Hans Agren,               KTH Stockholm,                Sweden      (SIRIUS module, RESPONS, MC-SCRF solvation model)
 --------------------------------------------------------------------------------

     Date and time (Linux)  : Mon Jun 17 11:15:03 2019
     Host name              : Lab2-333-NPs                            

 * Work memory size             :    64000000 =  488.28 megabytes.

 * Directories for basis set searches:
   1) /home/lab333/dalton/build_2018_atlas
   2) /home/lab333/dalton/build_2018_atlas/basis


Compilation information
-----------------------

 Who compiled             | lab333
 Host                     | Lab2-333-NPs
 System                   | Linux-4.4.0-43-Microsoft
 CMake generator          | Unix Makefiles
 Processor                | x86_64
 64-bit integers          | OFF
 MPI                      | OFF
 Fortran compiler         | /usr/bin/gfortran
 Fortran compiler version | GNU Fortran (Ubuntu 7.3.0-27ubuntu1~18.04) 7.3.0
 C compiler               | /usr/bin/gcc
 C compiler version       | gcc (Ubuntu 7.3.0-27ubuntu1~18.04) 7.3.0
 C++ compiler             | /usr/bin/g++
 C++ compiler version     | g++ (Ubuntu 7.3.0-27ubuntu1~18.04) 7.3.0
 BLAS                     | /usr/lib/x86_64-linux-gnu/libf77blas.so;/usr/lib/x
                          | 86_64-linux-gnu/libcblas.so;/usr/lib/x86_64-linux-
                          | gnu/libatlas.so
 LAPACK                   | /usr/lib/x86_64-linux-gnu/libatlas.so;/usr/lib/x86
                          | _64-linux-gnu/atlas/liblapack.so
 Static linking           | OFF
 Last Git revision        | da625bf48c74028e805616daee31bc5d76b3a20d
 Git branch               | (HEAD detached at Dalton2018.1)
 Configuration time       | 2019-01-18 10:20:51.437510


   Content of the .dal input file
 ----------------------------------

**DALTON INPUT
.OPTIMIZE
**WAVE FUNCTIONS
.DFT
B3LYP
**END OF DALTON INPUT


   Content of the .mol file
 ----------------------------

BASIS
6-311++G**
 nitrobenzene
 Generated by the Dalton Input File Plugin for Avogadro
Atomtypes=4 Angstrom Generators=2 X Y
Charge=6.0 Atoms=4
C          0.00000        0.00000        0.00000
C         -1.21751        0.00000       -0.69427
C         -1.21114        0.00000       -2.09021
C         -0.00000        0.00000       -2.78479
Charge=7.0 Atoms=1
N         -0.00000       -0.00000        1.46794
Charge=8.0 Atoms=1
O         -1.09689       -0.00000        2.04531
Charge=1.0 Atoms=3
H         -2.16969        0.00000       -0.16792
H         -2.15084        0.00000       -2.63827
H         -0.00000        0.00000       -3.87287


       *******************************************************************
       *********** Output from DALTON general input processing ***********
       *******************************************************************

 --------------------------------------------------------------------------------
   Overall default print level:    0
   Print level for DALTON.STAT:    1

    "Old" integral transformation used (limited to max 255 basis functions)
 --------------------------------------------------------------------------------


 Chosen parameters for *OPTIMI :
 -------------------------------

 Default 1st order method will be used:   BFGS update.
 Optimization will be performed in redundant internal coordinates (by default).
 Model Hessian will be used as initial Hessian.
 The model Hessian parameters of Roland Lindh will be used.


 Trust region method will be used to control step (default).

 Convergence threshold for gradient set to :      1.00D-04
 Convergence threshold for energy set to   :      1.00D-06
 Convergence threshold for step set to     :      1.00D-04
 Number of convergence criteria set to     :   2


              >>>>>>>>>>>>>>>>>>>>>>>>>>>>>>>>>>>>>>>>>>>>>>>>>>>>>
              >>>>>>>>>> 1st Order Geometry Optimization >>>>>>>>>>
              >>>>>>>>>>>>>>>>>>>>>>>>>>>>>>>>>>>>>>>>>>>>>>>>>>>>>


 Reading .mol file to determine number of atoms for parallel runs.


   ****************************************************************************
   *************** Output of molecule and basis set information ***************
   ****************************************************************************


    The two title cards from your ".mol" input:
    ------------------------------------------------------------------------
 1:  nitrobenzene                                                           
 2:  Generated by the Dalton Input File Plugin for Avogadro                 
    ------------------------------------------------------------------------

  Coordinates are entered in Angstrom and converted to atomic units.
          - Conversion factor : 1 bohr = 0.52917721 A

  Atomic type no.    1
  --------------------
  Nuclear charge:   6.00000
  Number of symmetry independent centers:    4
  Number of basis sets to read;    2
  Basis set file used for this atomic type with Z =   6 :
     "/home/lab333/dalton/build_2018_atlas/basis/6-311++G**"

  Info about the basis set file: your basis has no documentation.
  Basis set: 6-311++G**                                                                      

  Atomic type no.    2
  --------------------
  Nuclear charge:   7.00000
  Number of symmetry independent centers:    1
  Number of basis sets to read;    2
  Basis set file used for this atomic type with Z =   7 :
     "/home/lab333/dalton/build_2018_atlas/basis/6-311++G**"

  Info about the basis set file: your basis has no documentation.
  Basis set: 6-311++G**                                                                      

  Atomic type no.    3
  --------------------
  Nuclear charge:   8.00000
  Number of symmetry independent centers:    1
  Number of basis sets to read;    2
  Basis set file used for this atomic type with Z =   8 :
     "/home/lab333/dalton/build_2018_atlas/basis/6-311++G**"

  Info about the basis set file: your basis has no documentation.
  Basis set: 6-311++G**                                                                      

  Atomic type no.    4
  --------------------
  Nuclear charge:   1.00000
  Number of symmetry independent centers:    3
  Number of basis sets to read;    2
  Basis set file used for this atomic type with Z =   1 :
     "/home/lab333/dalton/build_2018_atlas/basis/6-311++G**"

  Info about the basis set file: your basis has no documentation.
  Basis set: 6-311++G**                                                                      


                         SYMGRP: Point group information
                         -------------------------------

@    Point group: C2v

@  * The irrep name for each symmetry:    1: A1     2: B1     3: B2     4: A2 

   * The point group was generated by:

      Reflection in the yz-plane
      Reflection in the xz-plane

   * Group multiplication table

        |  E   C2z  Oxz  Oyz
   -----+--------------------
     E  |  E   C2z  Oxz  Oyz
    C2z | C2z   E   Oyz  Oxz
    Oxz | Oxz  Oyz   E   C2z
    Oyz | Oyz  Oxz  C2z   E 

   * Character table

        |  E   C2z  Oxz  Oyz
   -----+--------------------
    A1  |   1    1    1    1
    B1  |   1   -1    1   -1
    B2  |   1   -1   -1    1
    A2  |   1    1   -1   -1

   * Direct product table

        | A1   B1   B2   A2 
   -----+--------------------
    A1  | A1   B1   B2   A2 
    B1  | B1   A1   A2   B2 
    B2  | B2   A2   A1   B1 
    A2  | A2   B2   B1   A1 


                                 Isotopic Masses
                                 ---------------

                           C          12.000000
                           C   _1     12.000000
                           C   _2     12.000000
                           C   _1     12.000000
                           C   _2     12.000000
                           C          12.000000
                           N          14.003074
                           O   _1     15.994915
                           O   _2     15.994915
                           H   _1      1.007825
                           H   _2      1.007825
                           H   _1      1.007825
                           H   _2      1.007825
                           H           1.007825

                       Total mass:   123.032029 amu
                       Natural abundance:  92.716 %

 Center-of-mass coordinates (a.u.):    0.000000    0.000000   -0.365861


  Atoms and basis sets
  --------------------

  Number of atom types :    4
  Total number of atoms:   14

  Basis set used is "6-311++G**" from the basis set library.

  label    atoms   charge   prim   cont     basis
  ----------------------------------------------------------------------
  C           6    6.0000    35    22      [12s6p1d|5s4p1d]                                   
  N           1    7.0000    35    22      [12s6p1d|5s4p1d]                                   
  O           2    8.0000    35    22      [12s6p1d|5s4p1d]                                   
  H           5    1.0000     9     7      [6s1p|4s1p]                                        
  ----------------------------------------------------------------------
  total:     14   64.0000   360   233
  ----------------------------------------------------------------------
  Spherical harmonic basis used.

  Threshold for neglecting AO integrals:  1.00D-12


  Symmetry Coordinates
  --------------------

  Number of coordinates in each symmetry:    14   14    9    5


   Interatomic separations (in Angstrom):
   --------------------------------------

            C           C   _1      C   _2      C   _1      C   _2      C     
            ------      ------      ------      ------      ------      ------
 C     :    0.000000
 C   _1:    1.401550    0.000000
 C   _2:    1.401550    2.435020    0.000000
 C   _1:    2.415748    1.395955    2.801248    0.000000
 C   _2:    2.415748    2.801248    1.395955    2.422280    0.000000
 C     :    2.784790    2.419216    2.419216    1.396174    1.396174    0.000000
 N     :    1.467940    2.481428    2.481428    3.758629    3.758629    4.252730
 O   _1:    2.320875    2.742234    3.586328    4.137098    4.735982    4.953083
 O   _2:    2.320875    3.586328    2.742234    4.735982    4.137098    4.953083
 H   _1:    2.176178    1.087976    3.427852    2.148026    3.889114    3.399347
 H   _2:    2.176178    3.427852    1.087976    3.889114    2.148026    3.399347
 H   _1:    3.403907    2.156442    3.889077    1.087845    3.406359    2.155825
 H   _2:    3.403907    3.889077    2.156442    3.406359    1.087845    2.155825
 H     :    3.872870    3.403796    3.403796    2.155165    2.155165    1.088080

            N           O   _1      O   _2      H   _1      H   _2      H   _1
            ------      ------      ------      ------      ------      ------
 N     :    0.000000
 O   _1:    1.239566    0.000000
 O   _2:    1.239566    2.193780    0.000000
 H   _1:    2.717277    2.459530    3.945749    0.000000
 H   _2:    2.717277    3.945749    2.459530    4.339380    0.000000
 H   _1:    4.635415    4.800701    5.699445    2.470422    4.976908    0.000000
 H   _2:    4.635415    5.699445    4.800701    4.976908    2.470422    4.301680
 H     :    5.340810    6.018972    6.018972    4.293508    4.293508    2.479990

            H   _2      H     
            ------      ------
 H   _2:    0.000000
 H     :    2.479990    0.000000


  Max    interatomic separation is    6.0190 Angstrom (   11.3742 Bohr)
  between atoms   14 and    8, "H     " and "O   _1".

  Min HX interatomic separation is    1.0878 Angstrom (    2.0557 Bohr)

  Min YX interatomic separation is    1.2396 Angstrom (    2.3424 Bohr)


  Bond distances (Angstrom):
  --------------------------

                  atom 1     atom 2       distance
                  ------     ------       --------
  bond distance:  C   _1     C            1.401550
  bond distance:  C   _2     C            1.401550
  bond distance:  C   _1     C   _1       1.395955
  bond distance:  C   _2     C   _2       1.395955
  bond distance:  C          C   _1       1.396174
  bond distance:  C          C   _2       1.396174
  bond distance:  N          C            1.467940
  bond distance:  O   _1     N            1.239566
  bond distance:  O   _2     N            1.239566
  bond distance:  H   _1     C   _1       1.087976
  bond distance:  H   _2     C   _2       1.087976
  bond distance:  H   _1     C   _1       1.087845
  bond distance:  H   _2     C   _2       1.087845
  bond distance:  H          C            1.088080


  Bond angles (degrees):
  ----------------------

                  atom 1     atom 2     atom 3         angle
                  ------     ------     ------         -----
  bond angle:     C   _1     C          C   _2       120.613
  bond angle:     C   _1     C          N            119.693
  bond angle:     C   _2     C          N            119.693
  bond angle:     C          C   _1     C   _1       119.432
  bond angle:     C          C   _1     H   _1       121.373
  bond angle:     C   _1     C   _1     H   _1       119.195
  bond angle:     C          C   _2     C   _2       119.432
  bond angle:     C          C   _2     H   _2       121.373
  bond angle:     C   _2     C   _2     H   _2       119.195
  bond angle:     C   _1     C   _1     C            120.095
  bond angle:     C   _1     C   _1     H   _1       119.991
  bond angle:     C          C   _1     H   _1       119.914
  bond angle:     C   _2     C   _2     C            120.095
  bond angle:     C   _2     C   _2     H   _2       119.991
  bond angle:     C          C   _2     H   _2       119.914
  bond angle:     C   _1     C          C   _2       120.332
  bond angle:     C   _1     C          H            119.834
  bond angle:     C   _2     C          H            119.834
  bond angle:     C          N          O   _1       117.761
  bond angle:     C          N          O   _2       117.761
  bond angle:     O   _1     N          O   _2       124.478




 Principal moments of inertia (u*A**2) and principal axes
 --------------------------------------------------------

   IA     128.083113          0.000000    0.000000    1.000000
   IB     398.073290          1.000000    0.000000    0.000000
   IC     526.156403          0.000000    1.000000    0.000000


 Rotational constants
 --------------------

@    The molecule is planar.

               A                   B                   C

           3945.7115           1269.5627            960.5110 MHz
            0.131615            0.042348            0.032039 cm-1


@  Nuclear repulsion energy :  410.144923220972 Hartree


  Symmetry Orbitals
  -----------------

  Number of orbitals in each symmetry:          98   76   36   23


  Symmetry  A1 ( 1)

    1     C        1s         1
    2     C        1s         2
    3     C        1s         3
    4     C        1s         4
    5     C        1s         5
    6     C        2pz        8
    7     C        2pz       11
    8     C        2pz       14
    9     C        2pz       17
   10     C        3d0       20
   11     C        3d2+      22
   12     C        1s        23 +   24
   13     C        1s        25 +   26
   14     C        1s        27 +   28
   15     C        1s        29 +   30
   16     C        1s        31 +   32
   17     C        2px       33 -   34
   18     C        2pz       37 +   38
   19     C        2px       39 -   40
   20     C        2pz       43 +   44
   21     C        2px       45 -   46
   22     C        2pz       49 +   50
   23     C        2px       51 -   52
   24     C        2pz       55 +   56
   25     C        3d0       61 +   62
   26     C        3d1+      63 -   64
   27     C        3d2+      65 +   66
   28     C        1s        67 +   68
   29     C        1s        69 +   70
   30     C        1s        71 +   72
   31     C        1s        73 +   74
   32     C        1s        75 +   76
   33     C        2px       77 -   78
   34     C        2pz       81 +   82
   35     C        2px       83 -   84
   36     C        2pz       87 +   88
   37     C        2px       89 -   90
   38     C        2pz       93 +   94
   39     C        2px       95 -   96
   40     C        2pz       99 +  100
   41     C        3d0      105 +  106
   42     C        3d1+     107 -  108
   43     C        3d2+     109 +  110
   44     C        1s       111
   45     C        1s       112
   46     C        1s       113
   47     C        1s       114
   48     C        1s       115
   49     C        2pz      118
   50     C        2pz      121
   51     C        2pz      124
   52     C        2pz      127
   53     C        3d0      130
   54     C        3d2+     132
   55     N        1s       133
   56     N        1s       134
   57     N        1s       135
   58     N        1s       136
   59     N        1s       137
   60     N        2pz      140
   61     N        2pz      143
   62     N        2pz      146
   63     N        2pz      149
   64     N        3d0      152
   65     N        3d2+     154
   66     O        1s       155 +  156
   67     O        1s       157 +  158
   68     O        1s       159 +  160
   69     O        1s       161 +  162
   70     O        1s       163 +  164
   71     O        2px      165 -  166
   72     O        2pz      169 +  170
   73     O        2px      171 -  172
   74     O        2pz      175 +  176
   75     O        2px      177 -  178
   76     O        2pz      181 +  182
   77     O        2px      183 -  184
   78     O        2pz      187 +  188
   79     O        3d0      193 +  194
   80     O        3d1+     195 -  196
   81     O        3d2+     197 +  198
   82     H        1s       199 +  200
   83     H        1s       201 +  202
   84     H        1s       203 +  204
   85     H        1s       205 +  206
   86     H        2px      207 -  208
   87     H        2pz      211 +  212
   88     H        1s       213 +  214
   89     H        1s       215 +  216
   90     H        1s       217 +  218
   91     H        1s       219 +  220
   92     H        2px      221 -  222
   93     H        2pz      225 +  226
   94     H        1s       227
   95     H        1s       228
   96     H        1s       229
   97     H        1s       230
   98     H        2pz      233


  Symmetry  B1 ( 2)

   99     C        2px        6
  100     C        2px        9
  101     C        2px       12
  102     C        2px       15
  103     C        3d1+      21
  104     C        1s        23 -   24
  105     C        1s        25 -   26
  106     C        1s        27 -   28
  107     C        1s        29 -   30
  108     C        1s        31 -   32
  109     C        2px       33 +   34
  110     C        2pz       37 -   38
  111     C        2px       39 +   40
  112     C        2pz       43 -   44
  113     C        2px       45 +   46
  114     C        2pz       49 -   50
  115     C        2px       51 +   52
  116     C        2pz       55 -   56
  117     C        3d0       61 -   62
  118     C        3d1+      63 +   64
  119     C        3d2+      65 -   66
  120     C        1s        67 -   68
  121     C        1s        69 -   70
  122     C        1s        71 -   72
  123     C        1s        73 -   74
  124     C        1s        75 -   76
  125     C        2px       77 +   78
  126     C        2pz       81 -   82
  127     C        2px       83 +   84
  128     C        2pz       87 -   88
  129     C        2px       89 +   90
  130     C        2pz       93 -   94
  131     C        2px       95 +   96
  132     C        2pz       99 -  100
  133     C        3d0      105 -  106
  134     C        3d1+     107 +  108
  135     C        3d2+     109 -  110
  136     C        2px      116
  137     C        2px      119
  138     C        2px      122
  139     C        2px      125
  140     C        3d1+     131
  141     N        2px      138
  142     N        2px      141
  143     N        2px      144
  144     N        2px      147
  145     N        3d1+     153
  146     O        1s       155 -  156
  147     O        1s       157 -  158
  148     O        1s       159 -  160
  149     O        1s       161 -  162
  150     O        1s       163 -  164
  151     O        2px      165 +  166
  152     O        2pz      169 -  170
  153     O        2px      171 +  172
  154     O        2pz      175 -  176
  155     O        2px      177 +  178
  156     O        2pz      181 -  182
  157     O        2px      183 +  184
  158     O        2pz      187 -  188
  159     O        3d0      193 -  194
  160     O        3d1+     195 +  196
  161     O        3d2+     197 -  198
  162     H        1s       199 -  200
  163     H        1s       201 -  202
  164     H        1s       203 -  204
  165     H        1s       205 -  206
  166     H        2px      207 +  208
  167     H        2pz      211 -  212
  168     H        1s       213 -  214
  169     H        1s       215 -  216
  170     H        1s       217 -  218
  171     H        1s       219 -  220
  172     H        2px      221 +  222
  173     H        2pz      225 -  226
  174     H        2px      231


  Symmetry  B2 ( 3)

  175     C        2py        7
  176     C        2py       10
  177     C        2py       13
  178     C        2py       16
  179     C        3d1-      19
  180     C        2py       35 +   36
  181     C        2py       41 +   42
  182     C        2py       47 +   48
  183     C        2py       53 +   54
  184     C        3d2-      57 -   58
  185     C        3d1-      59 +   60
  186     C        2py       79 +   80
  187     C        2py       85 +   86
  188     C        2py       91 +   92
  189     C        2py       97 +   98
  190     C        3d2-     101 -  102
  191     C        3d1-     103 +  104
  192     C        2py      117
  193     C        2py      120
  194     C        2py      123
  195     C        2py      126
  196     C        3d1-     129
  197     N        2py      139
  198     N        2py      142
  199     N        2py      145
  200     N        2py      148
  201     N        3d1-     151
  202     O        2py      167 +  168
  203     O        2py      173 +  174
  204     O        2py      179 +  180
  205     O        2py      185 +  186
  206     O        3d2-     189 -  190
  207     O        3d1-     191 +  192
  208     H        2py      209 +  210
  209     H        2py      223 +  224
  210     H        2py      232


  Symmetry  A2 ( 4)

  211     C        3d2-      18
  212     C        2py       35 -   36
  213     C        2py       41 -   42
  214     C        2py       47 -   48
  215     C        2py       53 -   54
  216     C        3d2-      57 +   58
  217     C        3d1-      59 -   60
  218     C        2py       79 -   80
  219     C        2py       85 -   86
  220     C        2py       91 -   92
  221     C        2py       97 -   98
  222     C        3d2-     101 +  102
  223     C        3d1-     103 -  104
  224     C        3d2-     128
  225     N        3d2-     150
  226     O        2py      167 -  168
  227     O        2py      173 -  174
  228     O        2py      179 -  180
  229     O        2py      185 -  186
  230     O        3d2-     189 +  190
  231     O        3d1-     191 -  192
  232     H        2py      209 -  210
  233     H        2py      223 -  224

  Symmetries of electric field:  B1 (2)  B2 (3)  A1 (1)

  Symmetries of magnetic field:  B2 (3)  B1 (2)  A2 (4)


                     .---------------------------------------.
                     | Starting in Integral Section (HERMIT) |
                     `---------------------------------------'



 ***************************************************************************************
 ****************** Output from **INTEGRALS input processing (HERMIT) ******************
 ***************************************************************************************


 - Using defaults, no **INTEGRALS input found

 Default print level:        1

 Calculation of one- and two-electron Hamiltonian integrals.

 Center of mass  (bohr):      0.000000000000      0.000000000000     -0.365861416539
 Operator center (bohr):      0.000000000000      0.000000000000      0.000000000000
 Gauge origin    (bohr):      0.000000000000      0.000000000000      0.000000000000
 Dipole origin   (bohr):      0.000000000000      0.000000000000      0.000000000000


     ************************************************************************
     ************************** Output from HERINT **************************
     ************************************************************************



                      Nuclear contribution to dipole moments
                      --------------------------------------

                 au               Debye          C m (/(10**-30)

      z    -31.38307860       -79.76782416      -266.07682091



 Threshold for neglecting two-electron integrals:  1.00D-12
 HERMIT - Number of two-electron integrals written:    81902474 ( 22.0% )
 HERMIT - Megabytes written:                            937.826

  Time used in TWOINT     is      10.62 seconds
  Total CPU  time used in HERMIT:  10.83 seconds
  Total wall time used in HERMIT:  11.25 seconds


                        .----------------------------------.
                        | End of Integral Section (HERMIT) |
                        `----------------------------------'



                   .--------------------------------------------.
                   | Starting in Wave Function Section (SIRIUS) |
                   `--------------------------------------------'


 *** Output from Huckel module :

     Using EWMO model:          F
     Using EHT  model:          T
     Number of Huckel orbitals each symmetry:   24   17    6    3

 Huckel EHT eigenvalues for symmetry :  1
          -20.694949     -15.704697     -11.413522     -11.393995     -11.376468
          -11.362318      -1.737816      -1.550787      -1.194753      -0.945269
           -0.818648      -0.779912      -0.643968      -0.590915      -0.496331
           -0.429836      -0.332567      -0.247606      -0.225211      -0.215742
           -0.206731      -0.178899      -0.166799      -0.161016

 Huckel EHT eigenvalues for symmetry :  2
          -20.699429     -11.395207     -11.377111      -1.396317      -1.202783
           -0.877491      -0.648185      -0.570595      -0.527553      -0.479508
           -0.416313      -0.275973      -0.213734      -0.203533      -0.177547
           -0.166345      -0.164322

 Huckel EHT eigenvalues for symmetry :  3
           -0.796649      -0.670163      -0.467503      -0.386075      -0.282204
           -0.237202

 Huckel EHT eigenvalues for symmetry :  4
           -0.593767      -0.459667      -0.289271

 **********************************************************************
 *SIRIUS* a direct, restricted step, second order MCSCF program       *
 **********************************************************************

 
     Date and time (Linux)  : Mon Jun 17 11:15:14 2019
     Host name              : Lab2-333-NPs                            

 Title lines from ".mol" input file:
      nitrobenzene                                                           
      Generated by the Dalton Input File Plugin for Avogadro                 

 Print level on unit LUPRI =   2 is   0
 Print level on unit LUW4  =   2 is   5

@    Restricted, closed shell Kohn-Sham DFT calculation.

 Initial molecular orbitals are obtained according to
 ".MOSTART EHT   " input option

     Wave function specification
     ============================
@    Wave function type        --- KS-DFT ---
@    Number of closed shell electrons          64
@    Number of electrons in active shells       0
@    Total charge of the molecule               0

@    Spin multiplicity and 2 M_S                1         0
@    Total number of symmetries                 4 (point group: C2v)
@    Reference state symmetry                   1 (irrep name : A1 )
 
     This is a DFT calculation of type: B3LYP
 Weighted mixed functional:
               HF exchange:    0.20000
                       VWN:    0.19000
                       LYP:    0.81000
                     Becke:    0.72000
                    Slater:    0.80000

     Orbital specifications
     ======================
@    Abelian symmetry species          All |    1    2    3    4
@                                          |  A1   B1   B2   A2 
                                       --- |  ---  ---  ---  ---
@    Total number of orbitals          233 |   98   76   36   23
@    Number of basis functions         233 |   98   76   36   23

      ** Automatic occupation of RKS orbitals **

      -- Initial occupation of symmetries is determined from extended Huckel guess.           
      -- Initial occupation of symmetries is :
@    Occupied SCF orbitals              32 |   16   11    3    2

     Maximum number of Fock   iterations      0
     Maximum number of DIIS   iterations     60
     Maximum number of QC-SCF iterations     60
     Threshold for SCF convergence     1.00D-05
 
     This is a DFT calculation of type: B3LYP
 Weighted mixed functional:
               HF exchange:    0.20000
                       VWN:    0.19000
                       LYP:    0.81000
                     Becke:    0.72000
                    Slater:    0.80000


 ***********************************************
 ***** DIIS acceleration of SCF iterations *****
 ***********************************************

 C1-DIIS algorithm; max error vectors =    8

 Automatic occupation of symmetries with  64 electrons.

 Iter     Total energy    Error norm  Delta(E)    SCF occupation
 -----------------------------------------------------------------------------
      K-S energy, electrons, error :    -46.364439514357  64.0000397008    3.97D-05
@  1  -434.602911290       6.62D+00  -4.35D+02    16  11   3   2
      Virial theorem: -V/T =      2.004728
@    MULPOP   C       0.22; C   _1  0.21; C   _2  0.21; C   _1 -0.01; C   _2 -0.01; C       0.18; N       1.11; O   _1 -0.90; O   _2 -0.90; H   _1 -0.02; 
@             H   _2 -0.02; H   _1 -0.02; H   _2 -0.02; H      -0.02; 
   1  Level shift: doubly occupied orbital energies shifted by -2.00D-01
 -----------------------------------------------------------------------------
      K-S energy, electrons, error :    -47.332403366403  64.0000124120    1.24D-05
@  2  -429.405954411       1.09D+01   5.20D+00    16  10   4   2
      Virial theorem: -V/T =      1.981529
@    MULPOP   C      -2.11; C   _1 -0.33; C   _2 -0.33; C   _1 -0.92; C   _2 -0.92; C      -0.66; N      -1.61; O   _1  2.54; O   _2  2.54; H   _1  0.41; 
@             H   _2  0.41; H   _1  0.32; H   _2  0.32; H       0.32; 
   2  Level shift: doubly occupied orbital energies shifted by -2.00D-01
 -----------------------------------------------------------------------------
      K-S energy, electrons, error :    -47.680128973591  64.0000147331    1.47D-05
@  3  -436.222752031       2.62D+00  -6.82D+00    16  11   3   2
      Virial theorem: -V/T =      1.990029
@    MULPOP   C      -1.16; C   _1  0.81; C   _2  0.81; C   _1 -0.58; C   _2 -0.58; C       0.29; N      -0.55; O   _1 -0.15; O   _2 -0.15; H   _1  0.28; 
@             H   _2  0.28; H   _1  0.24; H   _2  0.24; H       0.22; 
   3  Level shift: doubly occupied orbital energies shifted by -5.00D-02
 -----------------------------------------------------------------------------
      K-S energy, electrons, error :    -46.816797115153  64.0000200895    2.01D-05
@  4  -436.507882355       1.56D+00  -2.85D-01    16  11   3   2
      Virial theorem: -V/T =      2.008969
@    MULPOP   C      -0.99; C   _1  0.64; C   _2  0.64; C   _1 -0.63; C   _2 -0.63; C      -0.13; N       0.25; O   _1 -0.12; O   _2 -0.12; H   _1  0.25; 
@             H   _2  0.25; H   _1  0.19; H   _2  0.19; H       0.21; 
   4  Level shift: doubly occupied orbital energies shifted by -5.00D-02
 -----------------------------------------------------------------------------
      K-S energy, electrons, error :    -46.962657432492  64.0000204728    2.05D-05
@  5  -436.625243402       4.49D-01  -1.17D-01    16  11   3   2
      Virial theorem: -V/T =      2.005258
@    MULPOP   C      -1.17; C   _1  0.70; C   _2  0.70; C   _1 -0.59; C   _2 -0.59; C       0.14; N      -0.22; O   _1  0.03; O   _2  0.03; H   _1  0.26; 
@             H   _2  0.26; H   _1  0.16; H   _2  0.16; H       0.14; 
   5  Level shift: doubly occupied orbital energies shifted by -2.50D-02
 -----------------------------------------------------------------------------
      K-S energy, electrons, error :    -47.063617680300  64.0000187481    1.87D-05
@  6  -436.633938617       1.61D-01  -8.70D-03    16  11   3   2
      Virial theorem: -V/T =      2.003420
@    MULPOP   C      -1.04; C   _1  0.67; C   _2  0.67; C   _1 -0.64; C   _2 -0.64; C       0.02; N      -0.13; O   _1 -0.01; O   _2 -0.01; H   _1  0.27; 
@             H   _2  0.27; H   _1  0.19; H   _2  0.19; H       0.19; 
   6  Level shift: doubly occupied orbital energies shifted by -1.25D-02
 -----------------------------------------------------------------------------
      K-S energy, electrons, error :    -47.048486614352  64.0000190065    1.90D-05
@  7  -436.635598904       5.82D-02  -1.66D-03    16  11   3   2
      Virial theorem: -V/T =      2.003728
@    MULPOP   C      -1.08; C   _1  0.66; C   _2  0.66; C   _1 -0.60; C   _2 -0.60; C       0.07; N      -0.14; O   _1 -0.01; O   _2 -0.01; H   _1  0.27; 
@             H   _2  0.27; H   _1  0.18; H   _2  0.18; H       0.17; 
 -----------------------------------------------------------------------------
      K-S energy, electrons, error :    -47.044907699696  64.0000190241    1.90D-05
@  8  -436.635790392       2.11D-02  -1.91D-04    16  11   3   2
      Virial theorem: -V/T =      2.003794
@    MULPOP   C      -1.05; C   _1  0.67; C   _2  0.67; C   _1 -0.61; C   _2 -0.61; C       0.06; N      -0.16; O   _1 -0.01; O   _2 -0.01; H   _1  0.26; 
@             H   _2  0.26; H   _1  0.18; H   _2  0.18; H       0.17; 
 -----------------------------------------------------------------------------
      K-S energy, electrons, error :    -47.047929196253  64.0000189804    1.90D-05
@  9  -436.635820313       3.63D-03  -2.99D-05    16  11   3   2
      Virial theorem: -V/T =      2.003735
@    MULPOP   C      -1.06; C   _1  0.67; C   _2  0.67; C   _1 -0.61; C   _2 -0.61; C       0.07; N      -0.15; O   _1 -0.01; O   _2 -0.01; H   _1  0.26; 
@             H   _2  0.26; H   _1  0.18; H   _2  0.18; H       0.17; 
 -----------------------------------------------------------------------------
      K-S energy, electrons, error :    -47.048034568435  64.0000189757    1.90D-05
@ 10  -436.635820948       1.61D-03  -6.35D-07    16  11   3   2
      Virial theorem: -V/T =      2.003733
@    MULPOP   C      -1.06; C   _1  0.67; C   _2  0.67; C   _1 -0.61; C   _2 -0.61; C       0.06; N      -0.15; O   _1 -0.01; O   _2 -0.01; H   _1  0.26; 
@             H   _2  0.26; H   _1  0.18; H   _2  0.18; H       0.17; 
 -----------------------------------------------------------------------------
      K-S energy, electrons, error :    -47.047959507629  64.0000189769    1.90D-05
@ 11  -436.635821102       2.81D-04  -1.54D-07    16  11   3   2
      Virial theorem: -V/T =      2.003734
@    MULPOP   C      -1.06; C   _1  0.67; C   _2  0.67; C   _1 -0.61; C   _2 -0.61; C       0.06; N      -0.15; O   _1 -0.01; O   _2 -0.01; H   _1  0.26; 
@             H   _2  0.26; H   _1  0.18; H   _2  0.18; H       0.17; 
 -----------------------------------------------------------------------------
      K-S energy, electrons, error :    -47.047927612482  64.0000189774    1.90D-05
@ 12  -436.635821106       5.47D-05  -4.58D-09    16  11   3   2
      Virial theorem: -V/T =      2.003735
@    MULPOP   C      -1.06; C   _1  0.67; C   _2  0.67; C   _1 -0.61; C   _2 -0.61; C       0.06; N      -0.15; O   _1 -0.01; O   _2 -0.01; H   _1  0.26; 
@             H   _2  0.26; H   _1  0.18; H   _2  0.18; H       0.17; 
 -----------------------------------------------------------------------------
      K-S energy, electrons, error :    -47.047939756071  64.0000189772    1.90D-05
@ 13  -436.635821106       7.64D-06  -2.29D-10    16  11   3   2

@ *** DIIS converged in  13 iterations !
@     Converged SCF energy, gradient:   -436.635821106424    7.64D-06
    - total time used in SIRFCK :              0.00 seconds


 *** SCF orbital energy analysis ***

 Only the 20 lowest virtual orbital energies printed in each symmetry.

 Number of electrons :   64
 Orbital occupations :   16   11    3    2

 Sym       Kohn-Sham orbital energies

1 A1    -19.16483585   -14.55872684   -10.25271786   -10.21501473   -10.21119885
        -10.20841288    -1.23053801    -0.90072705    -0.81949205    -0.71526904
         -0.60983902    -0.57246126    -0.52074737    -0.47647106    -0.39851425
         -0.32261114    -0.01587768     0.01089529     0.03243029     0.04883873
          0.07938864     0.09517798     0.10887633     0.11787434     0.13019878
          0.14826504     0.16187824     0.18549567     0.19653792     0.20407057
          0.21960662     0.25118504     0.25781336     0.27626998     0.28685689
          0.30527874

2 B1    -19.16486078   -10.21502571   -10.20847284    -1.05928331    -0.78312492
         -0.64128907    -0.52425052    -0.48278265    -0.45668510    -0.38190574
         -0.30438187     0.00369940     0.03409926     0.09462477     0.10943346
          0.12360460     0.13833342     0.14500853     0.18126835     0.19072596
          0.24349804     0.25646131     0.26165915     0.26993835     0.31696217
          0.32504144     0.34982964     0.38733469     0.40813059     0.49272325
          0.51316571

3 B2     -0.54032749    -0.40163756    -0.29432884    -0.10941091    -0.01987105
          0.04949801     0.08396813     0.11105729     0.13166706     0.18133448
          0.19158511     0.30512724     0.50513124     0.55876334     0.60129148
          0.65785514     0.80120890     0.95330083     1.05513492     1.10836157
          1.21008771     1.54164721     1.55102149

4 A2     -0.32237837    -0.28897726    -0.04482048     0.07958878     0.13294710
          0.25253630     0.55060403     0.59273153     0.97371141     1.04184918
          1.06316454     1.10820679     1.53655654     1.69650497     1.74715056
          1.90247135     2.04847417     2.30653929     2.75610674     2.78907528
          2.85980333     3.34928342

    E(LUMO) :    -0.10941091 au (symmetry 3)
  - E(HOMO) :    -0.28897726 au (symmetry 4)
  ------------------------------------------
    gap     :     0.17956635 au

 --- Writing SIRIFC interface file

 CPU and wall time for SCF :     104.594     104.755


                       .-----------------------------------.
                       | --- Final results from SIRIUS --- |
                       `-----------------------------------'


@    Spin multiplicity:           1
@    Spatial symmetry:            1 ( irrep  A1  in C2v )
@    Total charge of molecule:    0

@    Final DFT energy:           -436.635821106424                 
@    Nuclear repulsion:           410.144923220972
@    Electronic energy:          -846.780744327396

@    Final gradient norm:           0.000007640812

 
     Date and time (Linux)  : Mon Jun 17 11:16:59 2019
     Host name              : Lab2-333-NPs                            

File label for MO orbitals:  17Jun19   FOCKDIIS

 (Only coefficients > 0.0100 are printed.)

 Molecular orbitals for symmetry species 1  (A1 )
 ------------------------------------------------

    Orbital         7        8        9       10       11       12       13
   1 C   :1s    -0.0150   0.0660   0.0619   0.0058   0.0441  -0.0055  -0.0053
   2 C   :1s    -0.0230   0.1020   0.0961   0.0088   0.0695  -0.0088  -0.0084
   3 C   :1s     0.0571  -0.2677  -0.2588  -0.0215  -0.1937   0.0226   0.0225
   4 C   :1s     0.0161  -0.1394  -0.1356  -0.0252  -0.1247   0.0486   0.0710
   5 C   :1s     0.4192  -0.5854  -0.6151   0.2755   0.5652  -0.1882   0.5961
   6 C   :2pz    0.0180   0.0162  -0.0408   0.0979   0.0561  -0.0740  -0.0436
   7 C   :2pz    0.0336   0.0188  -0.0680   0.1456   0.0769  -0.1051  -0.0625
   8 C   :2pz   -0.0470   0.0171   0.0224  -0.0068   0.0149  -0.0629   0.0293
   9 C   :2pz   -0.1783   0.0166   0.0455  -0.0678  -0.1395   0.1472  -0.1172
  10 C   :3d0    0.0101  -0.0079  -0.0106   0.0169   0.0091   0.0007  -0.0219
  11 C   :3d2+  -0.0006  -0.0097  -0.0052  -0.0081  -0.0090  -0.0005   0.0106
  12 C   :1s    -0.0025   0.0517   0.0074   0.0451  -0.0129   0.0032  -0.0236
  13 C   :1s    -0.0039   0.0796   0.0115   0.0701  -0.0203   0.0049  -0.0369
  14 C   :1s     0.0110  -0.2060  -0.0312  -0.1859   0.0559  -0.0116   0.1003
  15 C   :1s    -0.0205  -0.0943  -0.0023  -0.1313   0.0334  -0.0486   0.1301
  16 C   :1s    -0.4751   0.4038   0.4025  -0.2290  -0.1568   0.4142  -0.2142
  17 C   :2px    0.0016  -0.0288  -0.0162  -0.0107  -0.0732   0.0627  -0.0359
  18 C   :2pz    0.0023   0.0077  -0.0392   0.0086  -0.0543  -0.0202   0.0691
  19 C   :2px    0.0047  -0.0431  -0.0250  -0.0151  -0.1012   0.0869  -0.0488
  20 C   :2pz    0.0051   0.0112  -0.0578   0.0112  -0.0764  -0.0279   0.0984
  21 C   :2px   -0.0174  -0.0034   0.0069  -0.0184  -0.0513   0.0301  -0.0299
  22 C   :2pz    0.0183   0.0032  -0.0224   0.0163  -0.0227  -0.0082   0.0254
  23 C   :2px   -0.0935   0.0951   0.1152  -0.0223  -0.0826   0.0100  -0.0937
  24 C   :2pz    0.1248  -0.0291  -0.0180   0.0244  -0.0203  -0.1421  -0.0466
  25 C   :3d0    0.0005  -0.0040   0.0049   0.0024   0.0115  -0.0047  -0.0109
  28 C   :1s    -0.0003   0.0441  -0.0436  -0.0073  -0.0324   0.0084   0.0236
  29 C   :1s    -0.0004   0.0678  -0.0674  -0.0112  -0.0508   0.0130   0.0373
  30 C   :1s     0.0013  -0.1751   0.1756   0.0304   0.1375  -0.0358  -0.1035
  31 C   :1s     0.0225  -0.0798   0.0826   0.0342   0.1107  -0.0173  -0.1008
  32 C   :1s     0.3948  -0.3272  -0.2974   0.2149  -0.2514  -0.3181   0.0267
  33 C   :2px    0.0000  -0.0214   0.0256   0.0267  -0.0642   0.0496  -0.0347
  34 C   :2pz    0.0000  -0.0154  -0.0129  -0.0573   0.0374   0.0231  -0.0329
  35 C   :2px    0.0007  -0.0319   0.0378   0.0393  -0.0882   0.0686  -0.0495
  36 C   :2pz    0.0020  -0.0232  -0.0200  -0.0809   0.0518   0.0333  -0.0439
  37 C   :2px    0.0035  -0.0083   0.0090   0.0109  -0.0407   0.0462  -0.0249
  38 C   :2pz    0.0060  -0.0040  -0.0075  -0.0238   0.0233   0.0227  -0.0400
  39 C   :2px    0.0426  -0.0553  -0.0876   0.0222  -0.0566   0.0270   0.0409
  40 C   :2pz    0.0731  -0.0350  -0.0243   0.0346  -0.0580  -0.0809  -0.0207
  44 C   :1s    -0.0001   0.0423  -0.0627  -0.0612   0.0409   0.0007  -0.0237
  45 C   :1s    -0.0002   0.0651  -0.0969  -0.0951   0.0642   0.0010  -0.0372
  46 C   :1s     0.0013  -0.1681   0.2531   0.2545  -0.1740  -0.0019   0.0992
  47 C   :1s    -0.0086  -0.0761   0.1322   0.1505  -0.1210  -0.0315   0.1099
  48 C   :1s    -0.1906   0.2789   0.3202  -0.1914   0.3152  -0.0182  -0.1661
  49 C   :2pz    0.0001  -0.0252   0.0209  -0.0097   0.0150   0.0444  -0.1311
  50 C   :2pz    0.0009  -0.0377   0.0307  -0.0116   0.0207   0.0615  -0.1826
  51 C   :2pz   -0.0075  -0.0074   0.0101  -0.0112   0.0078   0.0217  -0.0907
  52 C   :2pz   -0.0576   0.0654   0.0298  -0.0889   0.1275   0.0083  -0.0397
  55 N   :1s    -0.0921   0.0093   0.0292  -0.0465  -0.0386  -0.0299  -0.0022
  56 N   :1s    -0.1447   0.0146   0.0466  -0.0746  -0.0623  -0.0485  -0.0038
  57 N   :1s     0.4139  -0.0404  -0.1362   0.2272   0.1979   0.1597   0.0176
  58 N   :1s     0.2279  -0.0475  -0.1384   0.2305   0.2024   0.1925  -0.0040
  59 N   :1s     0.1977   0.2550   0.2056  -0.0687   0.0172   0.0400   0.0297
  60 N   :2pz    0.0390   0.0559   0.1052  -0.0944   0.0062   0.1209   0.0989
  61 N   :2pz    0.0615   0.0834   0.1575  -0.1386   0.0146   0.1882   0.1481
  62 N   :2pz   -0.0134   0.0428   0.0886  -0.0907   0.0045   0.1328   0.1294
  63 N   :2pz    0.0562  -0.0081  -0.0042  -0.0012   0.0160  -0.0132   0.0737
  65 N   :3d2+   0.0212   0.0027   0.0036  -0.0018   0.0008  -0.0003  -0.0005
  66 O   :1s    -0.0588  -0.0147  -0.0269   0.0321   0.0312   0.0369   0.0161
  67 O   :1s    -0.0937  -0.0237  -0.0434   0.0519   0.0505   0.0596   0.0261
  68 O   :1s     0.2695   0.0707   0.1306  -0.1559  -0.1511  -0.1753  -0.0776
  69 O   :1s     0.1732   0.0585   0.1131  -0.1561  -0.1775  -0.2400  -0.1069
  70 O   :1s    -0.1195  -0.0707  -0.0627   0.0229  -0.0258  -0.0604  -0.0556
  71 O   :2px    0.0511   0.0090   0.0092   0.0110   0.0510   0.1076   0.0621
  72 O   :2pz   -0.0252   0.0057   0.0171  -0.0278  -0.0233   0.0030   0.0117
  73 O   :2px    0.0788   0.0145   0.0159   0.0132   0.0717   0.1548   0.0898
  74 O   :2pz   -0.0389   0.0080   0.0245  -0.0401  -0.0327   0.0064   0.0183
  75 O   :2px    0.0245   0.0057   0.0062   0.0045   0.0331   0.0735   0.0485
  76 O   :2pz   -0.0114   0.0028   0.0095  -0.0159  -0.0139   0.0195   0.0157
  77 O   :2px   -0.0297  -0.0191  -0.0166   0.0066  -0.0054  -0.0081  -0.0170
  78 O   :2pz    0.0106   0.0091   0.0060  -0.0004   0.0007   0.0033  -0.0100
  81 O   :3d2+   0.0094   0.0017   0.0022  -0.0001   0.0044   0.0103   0.0063
  82 H   :1s     0.0016  -0.0206  -0.0076  -0.0293   0.0347  -0.0482   0.0701
  83 H   :1s     0.0007  -0.0228  -0.0065  -0.0382   0.0433  -0.0646   0.0903
  84 H   :1s    -0.0158   0.0108   0.0094  -0.0039  -0.0081  -0.0132   0.0158
  85 H   :1s    -0.0472   0.0249   0.0286   0.0003  -0.0166  -0.0051  -0.0160
  88 H   :1s     0.0001  -0.0168   0.0235   0.0089   0.0538  -0.0447   0.0076
  89 H   :1s    -0.0000  -0.0207   0.0287   0.0096   0.0683  -0.0561   0.0110
  91 H   :1s     0.0176  -0.0064  -0.0202   0.0021  -0.0261   0.0101   0.0062
  94 H   :1s     0.0001  -0.0161   0.0344   0.0552  -0.0486  -0.0302   0.1217
  95 H   :1s    -0.0002  -0.0196   0.0421   0.0681  -0.0642  -0.0385   0.1647
  96 H   :1s    -0.0050   0.0081  -0.0097  -0.0110  -0.0026  -0.0094   0.0375
  97 H   :1s    -0.0145   0.0118  -0.0066  -0.0297   0.0395  -0.0115  -0.0081
  98 H   :2pz    0.0002  -0.0040   0.0076   0.0113  -0.0078  -0.0048   0.0156

    Orbital        14       15       16       17       18       19       20
   1 C   :1s     0.0383  -0.0125  -0.0172   0.0072   0.0016  -0.0071   0.0009
   2 C   :1s     0.0606  -0.0200  -0.0280   0.0118   0.0029  -0.0121   0.0010
   3 C   :1s    -0.1734   0.0565   0.0860  -0.0406  -0.0140   0.0490   0.0184
   4 C   :1s    -0.2010   0.1038   0.2716  -0.0877  -0.0989   0.4155  -0.3463
   5 C   :1s     0.5105   0.2419  -0.3266  -7.3827 -20.3958  31.4721 -25.6879
   6 C   :2pz    0.0499  -0.0073   0.1011  -0.0096  -0.0237  -0.0167  -0.0460
   7 C   :2pz    0.0678  -0.0071   0.1669  -0.0143  -0.0408  -0.0104  -0.0606
   8 C   :2pz    0.0286   0.0336   0.2005  -0.0117   0.0745  -0.5529  -0.1221
   9 C   :2pz   -0.0549  -0.0065  -0.0474   2.9917   5.4189  -9.3938   1.4463
  10 C   :3d0   -0.0024  -0.0210   0.0145   0.0076   0.0034   0.0182   0.0226
  11 C   :3d2+   0.0023   0.0123  -0.0073  -0.0067  -0.0125   0.0099   0.0043
  12 C   :1s    -0.0188   0.0078   0.0008   0.0100   0.0123  -0.0023   0.0032
  13 C   :1s    -0.0298   0.0125   0.0013   0.0162   0.0199  -0.0041   0.0052
  14 C   :1s     0.0800  -0.0382  -0.0029  -0.0541  -0.0595   0.0244  -0.0148
  15 C   :1s     0.0957  -0.0157   0.0105  -0.1155  -0.1927  -0.3928   0.0814
  16 C   :1s    -0.4554   0.0231   0.5398   5.3966  12.9206 -31.8210  24.2334
  17 C   :2px   -0.0813  -0.0222  -0.0281   0.0141   0.0209   0.0101   0.0284
  18 C   :2pz    0.0003   0.1125  -0.0200  -0.0083  -0.0217  -0.0088  -0.0135
  19 C   :2px   -0.1149  -0.0333  -0.0362   0.0198   0.0256   0.0208   0.0381
  20 C   :2pz   -0.0025   0.1537  -0.0284  -0.0128  -0.0239  -0.0089  -0.0104
  21 C   :2px   -0.0489  -0.0223  -0.0260   0.0563   0.1719  -0.3040   0.2571
  22 C   :2pz    0.0214   0.0977  -0.0717  -0.0689  -0.1667   0.1628  -0.1570
  23 C   :2px   -0.1138  -0.0405   0.1104   1.0551   4.9407  -6.9506   6.3046
  24 C   :2pz    0.0455  -0.0556  -0.0625  -1.2084  -2.3837   4.6061  -3.1245
  26 C   :3d1+  -0.0195  -0.0039   0.0045  -0.0092  -0.0003  -0.0058  -0.0108
  27 C   :3d2+  -0.0018   0.0043  -0.0043   0.0012   0.0004   0.0153   0.0220
  28 C   :1s     0.0176  -0.0056  -0.0022   0.0146   0.0037   0.0100  -0.0058
  29 C   :1s     0.0277  -0.0088  -0.0035   0.0235   0.0058   0.0166  -0.0093
  30 C   :1s    -0.0735   0.0236   0.0110  -0.0718  -0.0128  -0.0595   0.0230
  31 C   :1s    -0.0953   0.0321  -0.0309  -0.2896  -0.2055   0.2020   0.0177
  32 C   :1s     0.4637  -0.0928  -0.7915  -3.8596  -7.8212  28.0248 -30.7829
  33 C   :2px    0.0971   0.0229   0.0062   0.0313  -0.0082   0.0222   0.0088
  34 C   :2pz    0.0492  -0.1126   0.0237   0.0169  -0.0007   0.0151  -0.0065
  35 C   :2px    0.1372   0.0320   0.0100   0.0464  -0.0126   0.0257   0.0109
  36 C   :2pz    0.0643  -0.1581   0.0317   0.0232   0.0015   0.0183  -0.0035
  37 C   :2px    0.0620   0.0090   0.0075   0.0892  -0.0985   0.3297  -0.1537
  38 C   :2pz    0.0552  -0.0877   0.0079   0.0237  -0.0280   0.2866  -0.1316
  39 C   :2px    0.1118   0.0184  -0.1981   0.6428  -1.6727   6.5794  -9.1006
  40 C   :2pz    0.0457  -0.0349  -0.0797  -0.3437  -0.1315   5.0879  -4.9626
  41 C   :3d0   -0.0017  -0.0215   0.0011  -0.0083   0.0012   0.0044   0.0052
  42 C   :3d1+  -0.0180   0.0024  -0.0051   0.0096  -0.0006   0.0034   0.0122
  43 C   :3d2+   0.0001   0.0119  -0.0012   0.0023  -0.0039   0.0139   0.0158
  44 C   :1s    -0.0277  -0.0039  -0.0031   0.0144  -0.0117  -0.0135   0.0071
  45 C   :1s    -0.0437  -0.0062  -0.0049   0.0232  -0.0189  -0.0218   0.0118
  46 C   :1s     0.1227   0.0224   0.0141  -0.0711   0.0493   0.0629  -0.0432
  47 C   :1s     0.1336  -0.0014   0.0204  -0.2623   0.4321   0.0694   0.0817
  48 C   :1s    -0.4876  -0.0445   0.9023  -1.0796   7.8772 -24.9088  32.8966
  49 C   :2pz    0.0556   0.1470  -0.0013   0.0443  -0.0454  -0.0048   0.0317
  50 C   :2pz    0.0772   0.2044  -0.0017   0.0659  -0.0529  -0.0063   0.0287
  51 C   :2pz    0.0529   0.1434   0.0017   0.1286  -0.1084  -0.3027   0.4235
  52 C   :2pz   -0.0882   0.0035   0.1689   0.9776  -1.6555  -9.1322   9.9264
  53 C   :3d0    0.0132  -0.0271   0.0035   0.0108  -0.0043   0.0123   0.0157
  54 C   :3d2+  -0.0068   0.0149  -0.0029  -0.0094   0.0003   0.0015   0.0138
  55 N   :1s    -0.0067   0.0080  -0.0031  -0.0063  -0.0058  -0.0076  -0.0187
  56 N   :1s    -0.0108   0.0129  -0.0051  -0.0103  -0.0095  -0.0128  -0.0309
  57 N   :1s     0.0330  -0.0402   0.0150   0.0330   0.0284   0.0492   0.1042
  58 N   :1s     0.0371  -0.0621   0.0300   0.0849   0.0660   0.1851   0.2690
  59 N   :1s    -0.0741  -0.0391   0.1798  -0.6064  -0.4094   2.8295   5.2077
  60 N   :2pz   -0.0215   0.0460  -0.0607  -0.0091   0.0067  -0.0337  -0.0221
  61 N   :2pz   -0.0324   0.0662  -0.0965  -0.0138   0.0109  -0.0472  -0.0315
  62 N   :2pz   -0.0421   0.0822   0.0744   0.0200   0.0775  -0.1958  -0.0641
  63 N   :2pz   -0.0341   0.0508   0.1814  -0.6500  -0.5707   0.4682   0.2958
  64 N   :3d0   -0.0055   0.0084   0.0458  -0.0020  -0.0041   0.0037  -0.0024
  65 N   :3d2+   0.0030  -0.0026  -0.0328  -0.0052  -0.0089   0.0074  -0.0064
  67 O   :1s     0.0041   0.0054   0.0006   0.0076   0.0154  -0.0132   0.0151
  68 O   :1s    -0.0137  -0.0167  -0.0043  -0.0242  -0.0494   0.0419  -0.0559
  69 O   :1s    -0.0071  -0.0256  -0.0310  -0.0655  -0.1265   0.1259  -0.0495
  70 O   :1s     0.0286  -0.0213  -0.1118   0.1726   0.0796  -0.4004  -1.0896
  71 O   :2px   -0.0096   0.0240   0.0270  -0.0039  -0.0060   0.0011  -0.0086
  72 O   :2pz   -0.0255   0.0243   0.2006   0.0070   0.0002   0.0122   0.0099
  73 O   :2px   -0.0145   0.0351   0.0403  -0.0046  -0.0080  -0.0001  -0.0166
  74 O   :2pz   -0.0369   0.0358   0.2898   0.0112  -0.0000   0.0172   0.0141
  75 O   :2px   -0.0084   0.0225   0.0279  -0.0285  -0.0437   0.0356  -0.0076
  76 O   :2pz   -0.0314   0.0280   0.2680   0.0107   0.0122   0.0181   0.0328
  77 O   :2px    0.0100  -0.0062  -0.0294   0.1085   0.0813  -0.2006  -0.3966
  78 O   :2pz    0.0058  -0.0046   0.0130   0.0937   0.0184   0.0467   0.0384
  82 H   :1s     0.0787   0.0554   0.0009   0.0085  -0.0026   0.0183   0.0294
  83 H   :1s     0.1079   0.0799   0.0048   0.0250   0.0018  -0.0007   0.0724
  84 H   :1s     0.0290   0.0298  -0.0051   0.2027   0.4955  -0.0659   0.7060
  85 H   :1s    -0.0237  -0.0103   0.0129   0.7928   3.3503  -2.4261   3.9013
  88 H   :1s    -0.1072   0.0427  -0.0169   0.0049  -0.0012   0.0117   0.0221
  89 H   :1s    -0.1490   0.0616  -0.0239   0.0119  -0.0057   0.0455   0.0367
  90 H   :1s    -0.0466   0.0324  -0.0228   0.3582  -0.0605   0.7080  -0.1891
  91 H   :1s     0.0205   0.0051  -0.0546   1.4813  -0.1247   4.3597  -5.6020
  92 H   :2px   -0.0094   0.0055  -0.0012  -0.0103  -0.0020  -0.0102  -0.0026
  94 H   :1s    -0.0109  -0.1336   0.0066   0.0038   0.0040   0.0133   0.0190
  95 H   :1s    -0.0182  -0.1965   0.0117   0.0106   0.0340   0.0085   0.0613
  96 H   :1s     0.0039  -0.0915   0.0016   0.4112  -0.6425  -0.4554   0.8468
  97 H   :1s    -0.0114  -0.0099   0.0195   1.6598  -3.5752  -5.3826   5.2984
  98 H   :2pz   -0.0032  -0.0097   0.0002  -0.0138   0.0140   0.0012  -0.0107

    Orbital        21       22       23       24       25       26
   1 C   :1s    -0.0162  -0.0202   0.0055  -0.0152  -0.0105   0.0139
   2 C   :1s    -0.0275  -0.0338   0.0077  -0.0248  -0.0175   0.0225
   3 C   :1s     0.1024   0.1180   0.0063   0.0573   0.0693  -0.0601
   4 C   :1s     0.3128   0.2059  -0.6011   0.5536  -0.5110  -0.3684
   5 C   :1s    29.2475 -29.8209 -48.4593  30.7513 -92.5489 -45.5550
   6 C   :2pz    0.0128   0.0422   0.0278   0.0939   0.0344   0.0094
   7 C   :2pz    0.0378   0.0935   0.0566   0.1470   0.0531   0.0224
   8 C   :2pz   -0.3230   0.0637   0.1447   0.1196   0.6805  -0.0542
   9 C   :2pz   -9.4728   9.6161   5.8704  -3.6938  18.2794   9.0960
  10 C   :3d0    0.0018  -0.0182  -0.0022  -0.0345  -0.0112   0.0039
  11 C   :3d2+  -0.0082   0.0125   0.0176  -0.0018   0.0102  -0.0054
  12 C   :1s     0.0146  -0.0104  -0.0148   0.0067  -0.0110  -0.0091
  13 C   :1s     0.0236  -0.0171  -0.0249   0.0110  -0.0179  -0.0153
  14 C   :1s    -0.0667   0.0544   0.0897  -0.0289   0.0467   0.0536
  15 C   :1s    -0.4440   0.2007   0.1141  -0.2682   0.6368   0.2905
  16 C   :1s   -24.9436  20.8439  16.5117 -23.3183  87.9916  55.1126
  17 C   :2px    0.0059  -0.0176  -0.0106  -0.0180  -0.0261  -0.0057
  18 C   :2pz   -0.0036   0.0100   0.0251   0.0101   0.0251  -0.0201
  19 C   :2px    0.0244  -0.0361  -0.0323  -0.0321  -0.0577   0.0001
  20 C   :2pz   -0.0069   0.0176   0.0393   0.0208   0.0332  -0.0150
  21 C   :2px   -0.2308  -0.0592   0.1720  -0.2316   0.4831  -0.0146
  22 C   :2pz    0.0688   0.0819   0.1980   0.1085  -0.0893  -0.3120
  23 C   :2px   -4.7764   4.6063  10.1119  -3.5588  22.2774   9.5744
  24 C   :2pz    3.3621  -4.5541   0.8063   0.3287 -12.3179  -7.4590
  25 C   :3d0   -0.0073   0.0139   0.0064   0.0168   0.0058  -0.0024
  26 C   :3d1+   0.0079   0.0168  -0.0039   0.0064   0.0129  -0.0086
  27 C   :3d2+  -0.0019  -0.0030  -0.0034  -0.0153   0.0006  -0.0092
  28 C   :1s     0.0014  -0.0213  -0.0036  -0.0100   0.0180   0.0120
  29 C   :1s     0.0024  -0.0350  -0.0058  -0.0164   0.0296   0.0196
  30 C   :1s    -0.0119   0.1118   0.0156   0.0497  -0.0879  -0.0490
  31 C   :1s     0.1000   0.4471   0.2125   0.3278  -0.7306  -0.5147
  32 C   :1s    10.0940 -14.5722   9.0808  22.8413-103.9991 -47.0666
  33 C   :2px   -0.0193  -0.0336   0.0061   0.0199   0.0160   0.0264
  34 C   :2pz   -0.0073  -0.0108   0.0005   0.0236   0.0310   0.0089
  35 C   :2px   -0.0099  -0.0547   0.0125   0.0182   0.0417   0.0439
  36 C   :2pz   -0.0028  -0.0185   0.0042   0.0393   0.0476   0.0284
  37 C   :2px   -0.1283  -0.1337   0.0426   0.2422  -0.5969  -0.0205
  38 C   :2pz    0.0222  -0.0543   0.0464   0.1380  -0.0700  -0.2214
  39 C   :2px   -1.7562   1.4843   0.7620   4.7686 -28.2602  -9.2571
  40 C   :2pz    2.0895  -1.5653   1.9217   3.8351 -11.2921 -14.3679
  41 C   :3d0   -0.0071   0.0053   0.0031  -0.0081  -0.0116   0.0128
  42 C   :3d1+  -0.0075  -0.0135   0.0068   0.0015  -0.0103   0.0061
  43 C   :3d2+  -0.0116  -0.0005  -0.0127   0.0141   0.0071  -0.0034
  44 C   :1s     0.0033  -0.0169   0.0263   0.0083  -0.0219  -0.0112
  45 C   :1s     0.0053  -0.0280   0.0435   0.0140  -0.0356  -0.0188
  46 C   :1s    -0.0110   0.0955  -0.1453  -0.0465   0.1008   0.0534
  47 C   :1s    -0.1186   0.2957  -0.3351  -0.1838   1.0995   0.2561
  48 C   :1s     4.5723  -1.2664  -8.6844 -25.1375 120.1701  26.0481
  49 C   :2pz   -0.0039  -0.0378   0.0304   0.0770   0.0143  -0.0412
  50 C   :2pz   -0.0024  -0.0575   0.0836   0.1190   0.0124  -0.0823
  51 C   :2pz   -0.0107  -0.2041  -0.1900   0.1290   0.6780   0.1621
  52 C   :2pz    2.5019   2.7332 -11.3133 -11.8425  29.5701  16.6891
  53 C   :3d0   -0.0103  -0.0097  -0.0126   0.0236   0.0047   0.0091
  54 C   :3d2+  -0.0129   0.0086  -0.0031   0.0080  -0.0130   0.0100
  55 N   :1s     0.0043   0.0180  -0.0027   0.0387   0.0179  -0.0091
  56 N   :1s     0.0060   0.0287  -0.0056   0.0639   0.0291  -0.0161
  57 N   :1s     0.0025  -0.0709   0.0447  -0.2099  -0.0780   0.0718
  58 N   :1s    -0.1167  -0.4455  -0.1021  -0.7050  -0.5190   0.0144
  59 N   :1s    -0.7264  -1.3545   3.6869  -6.6829   1.0690  -4.5796
  60 N   :2pz   -0.0035   0.0385  -0.0011   0.0536   0.0017  -0.0122
  61 N   :2pz    0.0044   0.0538  -0.0061   0.0917  -0.0045  -0.0050
  62 N   :2pz   -0.1226   0.0872  -0.0065   0.0296   0.0288  -0.0571
  63 N   :2pz   -0.1884  -2.5596  -1.3284   0.3913  -0.3853  -2.0425
  64 N   :3d0    0.0107   0.0082   0.0051   0.0125  -0.0007   0.0035
  65 N   :3d2+   0.0121   0.0124   0.0097   0.0095   0.0176   0.0002
  66 O   :1s    -0.0136  -0.0069  -0.0026  -0.0118  -0.0093  -0.0053
  67 O   :1s    -0.0230  -0.0117  -0.0043  -0.0202  -0.0153  -0.0096
  68 O   :1s     0.0874   0.0433   0.0143   0.0787   0.0479   0.0508
  69 O   :1s     0.0878   0.0572   0.0567   0.0488   0.1802  -0.1081
  70 O   :1s     1.0362   1.0146  -0.1707   1.8491  -0.1105   2.3141
  71 O   :2px    0.0137   0.0192   0.0088   0.0319   0.0172   0.0001
  72 O   :2pz    0.0168  -0.0173  -0.0014  -0.0062  -0.0390   0.0389
  73 O   :2px    0.0250   0.0342   0.0165   0.0510   0.0284   0.0039
  74 O   :2pz    0.0206  -0.0237  -0.0034  -0.0157  -0.0605   0.0517
  75 O   :2px    0.0309   0.0288   0.0112   0.0804   0.0640  -0.0277
  76 O   :2pz    0.0347  -0.0567  -0.0060   0.0025  -0.0752   0.1046
  77 O   :2px    0.2482   0.3885  -0.0192   0.5443  -0.0453   0.6723
  78 O   :2pz   -0.1009   0.2335   0.1901  -0.5370  -0.1139  -0.1783
  82 H   :1s    -0.0024  -0.0224   0.0032  -0.0228  -0.0212  -0.0011
  83 H   :1s    -0.0037  -0.1367  -0.0733  -0.0909  -0.0624   0.0233
  84 H   :1s    -0.2347   0.2167   0.6531  -0.2449   0.6090  -0.1521
  85 H   :1s    -0.0400   3.3312   5.5824   0.4945   8.0464   4.2666
  86 H   :2px   -0.0099   0.0046   0.0097   0.0021   0.0106   0.0057
  87 H   :2pz   -0.0024  -0.0009   0.0008   0.0010  -0.0156   0.0029
  88 H   :1s    -0.0187  -0.0163  -0.0091   0.0106   0.0014   0.0128
  89 H   :1s     0.0016  -0.1667  -0.0037   0.0362   0.0116   0.0820
  90 H   :1s    -0.7371   0.3507  -0.2275   0.4142  -0.8100  -0.2416
  91 H   :1s    -3.3215   2.9253   0.8322   1.4287 -11.4020  -6.6335
  92 H   :2px    0.0045   0.0075   0.0079  -0.0041  -0.0201  -0.0047
  93 H   :2pz    0.0093   0.0069  -0.0104   0.0019  -0.0007  -0.0131
  94 H   :1s    -0.0122  -0.0099  -0.0213   0.0376  -0.0041   0.0056
  95 H   :1s    -0.0191  -0.1527   0.0932   0.1570   0.0343  -0.0921
  96 H   :1s    -0.1067   0.3691  -1.4543   0.1601   0.3766   1.1434
  97 H   :1s     3.3051   3.2368  -9.3896  -5.9165  10.0369   8.2502
  98 H   :2pz    0.0018   0.0085  -0.0105  -0.0240   0.0092   0.0131

 Molecular orbitals for symmetry species 2  (B1 )
 ------------------------------------------------

    Orbital         2        3        4        5        6        7        8
   1 C   :2px   -0.0010   0.0001  -0.0105  -0.0582  -0.1068   0.0601  -0.1201
   2 C   :2px    0.0038  -0.0008  -0.0144  -0.0854  -0.1500   0.0834  -0.1720
   3 C   :2px   -0.0046  -0.0029   0.0060  -0.0278  -0.0530  -0.0275  -0.0955
   4 C   :2px    0.0588  -0.0116   0.1976  -0.2704  -0.5473   0.6638   0.0800
   5 C   :3d1+  -0.0019   0.0005  -0.0058   0.0120   0.0063   0.0080   0.0078
   6 C   :1s     0.3977   0.0169  -0.0025  -0.0639  -0.0470  -0.0087  -0.0003
   7 C   :1s     0.3272   0.0138  -0.0039  -0.0990  -0.0736  -0.0136  -0.0005
   8 C   :1s     0.0142   0.0004   0.0101   0.2613   0.1992   0.0375   0.0022
   9 C   :1s    -0.0116  -0.0033   0.0062   0.1424   0.1395  -0.0134  -0.0133
  10 C   :1s     0.0975   0.0005   0.1672  -0.3919  -1.0270   0.6715  -0.0035
  11 C   :2px    0.0000   0.0000   0.0009  -0.0015   0.0081  -0.0366   0.0634
  12 C   :2pz    0.0000   0.0006   0.0025  -0.0268   0.0580  -0.0359   0.0985
  13 C   :2px    0.0006  -0.0003   0.0027  -0.0010   0.0121  -0.0528   0.0890
  14 C   :2pz    0.0001  -0.0021   0.0042  -0.0395   0.0817  -0.0513   0.1392
  15 C   :2px   -0.0035  -0.0022   0.0025  -0.0030   0.0043  -0.0442   0.0424
  16 C   :2pz   -0.0004   0.0007   0.0039  -0.0106   0.0385  -0.0471   0.0699
  17 C   :2px    0.0281  -0.0010  -0.0034  -0.1133  -0.2416   0.1629   0.0495
  18 C   :2pz    0.0077  -0.0034   0.0535  -0.0341  -0.0565   0.2079   0.0884
  19 C   :3d0    0.0004   0.0012   0.0002   0.0105  -0.0014   0.0021  -0.0045
  22 C   :1s     0.0168  -0.3977  -0.0003  -0.0616   0.0506   0.0050  -0.0003
  23 C   :1s     0.0139  -0.3272  -0.0005  -0.0953   0.0791   0.0079  -0.0005
  24 C   :1s     0.0008  -0.0140   0.0013   0.2508  -0.2133  -0.0222   0.0011
  25 C   :1s     0.0000   0.0091   0.0013   0.1355  -0.1387  -0.0237   0.0061
  26 C   :1s    -0.0311  -0.0157   0.0801   0.1060   0.3496   0.0875   0.0341
  27 C   :2px   -0.0000   0.0001   0.0000  -0.0033  -0.0014  -0.0211   0.0618
  28 C   :2pz    0.0005  -0.0000   0.0003   0.0287   0.0497   0.0487  -0.0979
  29 C   :2px    0.0004  -0.0008  -0.0001  -0.0040  -0.0025  -0.0297   0.0870
  30 C   :2pz   -0.0020   0.0002   0.0010   0.0427   0.0693   0.0675  -0.1375
  31 C   :2px    0.0015   0.0031  -0.0013  -0.0025  -0.0000  -0.0043   0.0437
  32 C   :2pz    0.0011   0.0011   0.0015   0.0118   0.0298   0.0288  -0.0654
  33 C   :2px   -0.0089  -0.0094   0.0235   0.0124   0.1329  -0.0403  -0.0447
  34 C   :2pz    0.0039  -0.0079   0.0097  -0.0445   0.0536   0.0823   0.0697
  35 C   :3d0   -0.0012  -0.0005   0.0003   0.0109   0.0003   0.0022  -0.0041
  38 C   :2px   -0.0002   0.0010  -0.0001  -0.0508   0.0947   0.0547  -0.1178
  39 C   :2px    0.0014  -0.0039  -0.0005  -0.0749   0.1318   0.0780  -0.1662
  40 C   :2px   -0.0003   0.0018  -0.0011  -0.0219   0.0525   0.0399  -0.0819
  41 C   :2px   -0.0112   0.0018   0.0122   0.0675   0.0318  -0.0722  -0.0703
  42 C   :3d1+   0.0007  -0.0020  -0.0002  -0.0127   0.0096   0.0033  -0.0065
  43 N   :2px   -0.0000   0.0000  -0.1458   0.0015  -0.0105   0.1544   0.0790
  44 N   :2px    0.0000  -0.0002  -0.2173   0.0024  -0.0152   0.2402   0.1251
  45 N   :2px    0.0007   0.0016  -0.0613  -0.0120  -0.0424   0.2175   0.0587
  46 N   :2px   -0.0164   0.0050  -0.1819   0.0861   0.1486  -0.1998   0.0274
  47 N   :3d1+  -0.0000   0.0000  -0.0256   0.0047   0.0093   0.0026   0.0165
  48 O   :1s     0.0000   0.0000  -0.0784   0.0045   0.0096  -0.0406  -0.0145
  49 O   :1s     0.0000   0.0000  -0.1254   0.0072   0.0155  -0.0657  -0.0235
  50 O   :1s    -0.0001  -0.0000   0.3665  -0.0215  -0.0469   0.1925   0.0675
  51 O   :1s     0.0008   0.0006   0.2642  -0.0266  -0.0662   0.3074   0.0999
  52 O   :1s    -0.0110   0.0031  -0.2043   0.0506   0.0738  -0.0485   0.0409
  53 O   :2px   -0.0000   0.0000   0.0445  -0.0022   0.0008  -0.1054  -0.0706
  54 O   :2pz    0.0000   0.0000  -0.0328  -0.0021  -0.0128   0.0931   0.0372
  55 O   :2px    0.0000  -0.0000   0.0679  -0.0031   0.0010  -0.1492  -0.1004
  56 O   :2pz   -0.0001  -0.0000  -0.0503  -0.0027  -0.0179   0.1342   0.0543
  57 O   :2px    0.0001   0.0003   0.0227  -0.0047  -0.0082  -0.0672  -0.0639
  58 O   :2pz    0.0002  -0.0001  -0.0208  -0.0011  -0.0087   0.0674   0.0295
  59 O   :2px   -0.0018   0.0004  -0.0349   0.0081   0.0115  -0.0072  -0.0005
  60 O   :2pz    0.0011  -0.0002   0.0300  -0.0039  -0.0032   0.0066   0.0045
  62 O   :3d1+  -0.0000  -0.0000  -0.0107   0.0002  -0.0006   0.0121   0.0061
  64 H   :1s     0.0003   0.0001   0.0020   0.0413   0.0549   0.0210  -0.0047
  65 H   :1s    -0.0030  -0.0000   0.0046   0.0489   0.0673   0.0319  -0.0065
  67 H   :1s     0.0076  -0.0004  -0.0254  -0.0302  -0.0559   0.0208   0.0004
  70 H   :1s    -0.0001  -0.0004   0.0001   0.0399  -0.0603  -0.0102  -0.0029
  71 H   :1s    -0.0001   0.0033  -0.0001   0.0488  -0.0777  -0.0123  -0.0042
  72 H   :1s     0.0017  -0.0032   0.0007  -0.0109   0.0013  -0.0011  -0.0012
  73 H   :1s    -0.0002  -0.0060   0.0130  -0.0139   0.0427   0.0012  -0.0018
  74 H   :2px   -0.0002   0.0013   0.0001   0.0068  -0.0104  -0.0025   0.0029

    Orbital         9       10       11       12       13       14       15
   1 C   :2px    0.0338  -0.1159  -0.0181   0.0037   0.0169  -0.0249   0.0087
   2 C   :2px    0.0559  -0.1618  -0.0316  -0.0014   0.0324  -0.0306   0.0160
   3 C   :2px   -0.0472  -0.0908  -0.0532   0.0032  -0.0475  -0.1396   0.1338
   4 C   :2px   -0.0386  -0.2288  -0.3997  -1.5418   1.0470  -8.8517   5.5974
   5 C   :3d1+  -0.0207   0.0127   0.0035   0.0082   0.0013  -0.0016   0.0143
   6 C   :1s     0.0095   0.0005  -0.0082   0.0043  -0.0130   0.0087   0.0031
   7 C   :1s     0.0149   0.0008  -0.0131   0.0068  -0.0210   0.0145   0.0056
   8 C   :1s    -0.0455   0.0015   0.0389  -0.0195   0.0592  -0.0543  -0.0293
   9 C   :1s    -0.0590  -0.0231   0.0569  -0.1193   0.2591  -0.1090   0.1613
  10 C   :1s    -0.1082  -0.3790   0.6064  -4.1318  -4.7385 -26.2896  18.8289
  11 C   :2px   -0.0961   0.1034  -0.0027   0.0296  -0.0307   0.0089   0.0474
  12 C   :2pz    0.0831   0.0027   0.0276  -0.0169   0.0049   0.0203  -0.0211
  13 C   :2px   -0.1328   0.1438  -0.0019   0.0411  -0.0352   0.0197   0.0774
  14 C   :2pz    0.1188   0.0026   0.0428  -0.0234  -0.0009   0.0224  -0.0365
  15 C   :2px   -0.1054   0.1070  -0.0236   0.0659  -0.1978  -0.0971   0.1915
  16 C   :2pz    0.0480  -0.0050  -0.0430  -0.0869   0.0556   0.1149  -0.0701
  17 C   :2px   -0.0196  -0.0687  -0.2141  -0.0674  -4.3070  -8.0963   1.2567
  18 C   :2pz    0.0526  -0.0456  -0.6777  -1.0854   3.5107   0.5131   1.7996
  20 C   :3d1+   0.0024   0.0257   0.0012  -0.0082   0.0002   0.0055  -0.0079
  22 C   :1s     0.0101   0.0012   0.0044   0.0120   0.0094  -0.0080   0.0189
  23 C   :1s     0.0158   0.0020   0.0070   0.0193   0.0153  -0.0133   0.0318
  24 C   :1s    -0.0481  -0.0087  -0.0190  -0.0521  -0.0434   0.0462  -0.1141
  25 C   :1s    -0.0375   0.0124  -0.0751  -0.3590  -0.2276   0.1186  -0.1276
  26 C   :1s     0.1010   0.0901  -0.6552  -2.2098   6.8665  17.0209  -2.6493
  27 C   :2px   -0.0897  -0.1150  -0.0001   0.0421   0.0118   0.0147   0.0546
  28 C   :2pz   -0.0825   0.0093  -0.0188   0.0205   0.0083  -0.0151   0.0208
  29 C   :2px   -0.1227  -0.1599   0.0001   0.0542   0.0083   0.0125   0.1013
  30 C   :2pz   -0.1176   0.0124  -0.0262   0.0282   0.0079  -0.0302   0.0454
  31 C   :2px   -0.0783  -0.1140   0.0065   0.1367   0.1292   0.1347   0.0947
  32 C   :2pz   -0.0527   0.0014  -0.0542   0.0738   0.0651   0.0745  -0.0713
  33 C   :2px   -0.0068   0.0307   0.2102   1.7222   3.8310   5.3449  -7.0042
  34 C   :2pz    0.0119   0.0058  -0.5471   1.6732   2.1756   3.8320  -6.4261
  35 C   :3d0   -0.0092  -0.0045  -0.0002  -0.0007   0.0044  -0.0139   0.0008
  36 C   :3d1+  -0.0032   0.0256  -0.0008   0.0072  -0.0012  -0.0044   0.0046
  38 C   :2px    0.0288   0.1282  -0.0084  -0.0026  -0.0058  -0.0220  -0.0029
  39 C   :2px    0.0476   0.1769  -0.0130  -0.0088  -0.0024  -0.0348   0.0002
  40 C   :2px   -0.0087   0.1060   0.0023  -0.0529  -0.0618   0.0309   0.0536
  41 C   :2px    0.0094   0.0185   0.4538  -1.4408  -0.3964   4.0322   3.1233
  42 C   :3d1+   0.0204   0.0168   0.0016  -0.0058   0.0063  -0.0189   0.0016
  43 N   :2px   -0.0010   0.0143  -0.0129  -0.0036   0.0142   0.0170   0.0142
  44 N   :2px   -0.0002   0.0216  -0.0258  -0.0072   0.0245   0.0166   0.0189
  45 N   :2px    0.0136  -0.0141   0.1039  -0.0072   0.0701   0.0884   0.0970
  46 N   :2px    0.0672   0.0324  -0.1511  -0.1276   0.1492   1.3046   1.0033
  47 N   :3d1+   0.0024   0.0084  -0.0416  -0.0023  -0.0007   0.0012  -0.0075
[...]


 
     Date and time (Linux)  : Mon Jun 17 11:32:31 2019
     Host name              : Lab2-333-NPs                            


   ***************************************************************************
   ************************ FINAL RESULTS from ABACUS ************************
   ***************************************************************************


 
     Date and time (Linux)  : Mon Jun 17 11:33:50 2019
     Host name              : Lab2-333-NPs                            


 CPU time statistics for ABACUS
 ------------------------------

 ONEINT     00:00:40      50 %
 TWOTEX     00:00:39      50 %

 TOTAL      00:01:19     100 %


  Total CPU  time used in ABACUS:  1 minute  19 seconds
  Total wall time used in ABACUS:  1 minute  19 seconds


                   .-------------------------------------------.
                   | End of Static Property Section (ABACUS) - |
                   `-------------------------------------------'



            *********************************************************
            *** Output from geometry convergence control (MINEND) ***
            *********************************************************


 Energy converged       yes 
 Gradient converged     yes 
 Step converged         no  
 Conditions fullfilled   2
 Required conditions     2
 Totally sym. index      0
 Hessian index           0
 End of optimization    yes 


           :::::::::::::::::::::::::::::::::::::::::::::::::::::::::::
           ::::::::::::::: Optimization Control Center :::::::::::::::
           :::::::::::::::::::::::::::::::::::::::::::::::::::::::::::



                               Final geometry (au)
                               -------------------

 C          0.0000000000            0.0000000000           -0.0502212903
 C   _1    -2.3036772316            0.0000000000           -1.3190018023
 C   _2     2.3036772316            0.0000000000           -1.3190018023
 C   _1    -2.2875315911            0.0000000000           -3.9490352250
 C   _2     2.2875315911            0.0000000000           -3.9490352250
 C          0.0000000000            0.0000000000           -5.2612780866
 N          0.0000000000            0.0000000000            2.7494176618
 O   _1    -2.0498811213            0.0000000000            3.8240081745
 O   _2     2.0498811213            0.0000000000            3.8240081745
 H   _1    -4.0460175755            0.0000000000           -0.2509488867
 H   _2     4.0460175755            0.0000000000           -0.2509488867
 H   _1    -4.0615558101            0.0000000000           -4.9722116748
 H   _2     4.0615558101            0.0000000000           -4.9722116748
 H          0.0000000000            0.0000000000           -7.3102077506





                             Optimization information
                             ------------------------

 Iteration number               :       6
 End of optimization            :       T 
 Energy at this geometry is     :    -436.637183636111
 Energy change from last geom.  :      -0.000000061045
 Predicted change               :      -0.000000063673
 Ratio, actual/predicted change :       0.958731685613
 Norm of gradient               :       0.000033116155
 Norm of step                   :       0.000175941097
 Updated trust radius           :       0.500000000000
 Total effective Hessian index  :       0




          <<<<<<<<<<<<<<<<<<<<<<<<<<<<<<<<<<<<<<<<<<<<<<<<<<<<<<<<<<<<<<
          <<<<<<<<<<<<<<<<<<<<  End of Optimization <<<<<<<<<<<<<<<<<<<<
          <<<<<<<<<<<<<<<<<<<<<<<<<<<<<<<<<<<<<<<<<<<<<<<<<<<<<<<<<<<<<<



                              Final geometry (bohr)
                              ---------------------

 C          0.0000000000            0.0000000000           -0.0502212903
 C   _1    -2.3036772316            0.0000000000           -1.3190018023
 C   _2     2.3036772316            0.0000000000           -1.3190018023
 C   _1    -2.2875315911            0.0000000000           -3.9490352250
 C   _2     2.2875315911            0.0000000000           -3.9490352250
 C          0.0000000000            0.0000000000           -5.2612780866
 N          0.0000000000            0.0000000000            2.7494176618
 O   _1    -2.0498811213            0.0000000000            3.8240081745
 O   _2     2.0498811213            0.0000000000            3.8240081745
 H   _1    -4.0460175755            0.0000000000           -0.2509488867
 H   _2     4.0460175755            0.0000000000           -0.2509488867
 H   _1    -4.0615558101            0.0000000000           -4.9722116748
 H   _2     4.0615558101            0.0000000000           -4.9722116748
 H          0.0000000000            0.0000000000           -7.3102077506





                      Final geometry (xyz format; angstrom)
                      -------------------------------------

14

C        0.0000000000            0.0000000000           -0.0265759623
C       -1.2190534920            0.0000000000           -0.6979856948
C        1.2190534920            0.0000000000           -0.6979856948
C       -1.2105095870            0.0000000000           -2.0897394457
C        1.2105095870            0.0000000000           -2.0897394457
C        0.0000000000            0.0000000000           -2.7841484631
N        0.0000000000            0.0000000000            1.4549291696
O       -1.0847503743            0.0000000000            2.0235779798
O        1.0847503743            0.0000000000            2.0235779798
H       -2.1410602955            0.0000000000           -0.1327964319
H        2.1410602955            0.0000000000           -0.1327964319
H       -2.1492827751            0.0000000000           -2.6311811056
H        2.1492827751            0.0000000000           -2.6311811056
H        0.0000000000            0.0000000000           -3.8683953478



@ Iter     Energy        Change       GradNorm  Index   StepLen    TrustRad #Rej
@ ------------------------------------------------------------------------------
@   0     -436.635821     0.000000     0.036605    0    0.179387*   0.500000   0 
@   1     -436.636941    -0.001120     0.015653    0    0.106394*   0.500000   0 
@   2     -436.637161    -0.000220     0.003993    0    0.016822*   0.500000   0 
@   3     -436.637177    -0.000017     0.002144    0    0.015049*   0.500000   0 
@   4     -436.637183    -0.000006     0.000535    0    0.002005*   0.500000   0 
@   5     -436.637184    -0.000000     0.000281    0    0.001924*   0.500000   0 
@   6     -436.637184    -0.000000     0.000033    0    0.000176*   0.500000   0 

@  *) Newton step taken.


   Interatomic separations (in Angstrom):
   --------------------------------------

            C           C   _1      C   _2      C   _1      C   _2      C     
            ------      ------      ------      ------      ------      ------
 C     :    0.000000
 C   _1:    1.391719    0.000000
 C   _2:    1.391719    2.438107    0.000000
 C   _1:    2.392065    1.391780    2.799956    0.000000
 C   _2:    2.392065    2.799956    1.391780    2.421019    0.000000
 C     :    2.757573    2.416230    2.416230    1.395542    1.395542    0.000000
 N     :    1.481505    2.474093    2.474093    3.745665    3.745665    4.239078
 O   _1:    2.319443    2.724875    3.565729    4.115239    4.710371    4.928582
 O   _2:    2.319443    3.565729    2.724875    4.710371    4.115239    4.928582
 H   _1:    2.143694    1.081451    3.407316    2.166922    3.881063    3.407904
 H   _2:    2.143694    3.407316    1.081451    3.881063    2.166922    3.407904
 H   _1:    3.376890    2.145360    3.883675    1.083722    3.403140    2.154719
 H   _2:    3.376890    3.883675    2.145360    3.403140    1.083722    2.154719
 H     :    3.841819    3.396703    3.396703    2.151500    2.151500    1.084247

            N           O   _1      O   _2      H   _1      H   _2      H   _1
            ------      ------      ------      ------      ------      ------
 N     :    0.000000
 O   _1:    1.224763    0.000000
 O   _2:    1.224763    2.169501    0.000000
 H   _1:    2.665523    2.401196    3.880181    0.000000
 H   _2:    2.665523    3.880181    2.401196    4.282121    0.000000
 H   _1:    4.616894    4.774936    5.667958    2.498398    4.964773    0.000000
 H   _2:    4.616894    5.667958    4.774936    4.964773    2.498398    4.298566
 H     :    5.323325    5.990996    5.990996    4.305675    4.305675    2.479943

            H   _2      H     
            ------      ------
 H   _2:    0.000000
 H     :    2.479943    0.000000


  Max    interatomic separation is    5.9910 Angstrom (   11.3213 Bohr)
  between atoms   14 and    8, "H     " and "O   _1".

  Min HX interatomic separation is    1.0815 Angstrom (    2.0436 Bohr)

  Min YX interatomic separation is    1.2248 Angstrom (    2.3145 Bohr)


  Bond distances (Angstrom):
  --------------------------

                  atom 1     atom 2       distance
                  ------     ------       --------
  bond distance:  C   _1     C            1.391719
  bond distance:  C   _2     C            1.391719
  bond distance:  C   _1     C   _1       1.391780
  bond distance:  C   _2     C   _2       1.391780
  bond distance:  C          C   _1       1.395542
  bond distance:  C          C   _2       1.395542
  bond distance:  N          C            1.481505
  bond distance:  O   _1     N            1.224763
  bond distance:  O   _2     N            1.224763
  bond distance:  H   _1     C   _1       1.081451
  bond distance:  H   _2     C   _2       1.081451
  bond distance:  H   _1     C   _1       1.083722
  bond distance:  H   _2     C   _2       1.083722
  bond distance:  H          C            1.084247


  Bond angles (degrees):
  ----------------------

                  atom 1     atom 2     atom 3         angle
                  ------     ------     ------         -----
  bond angle:     C   _1     C          C   _2       122.311
  bond angle:     C   _1     C          N            118.844
  bond angle:     C   _2     C          N            118.844
  bond angle:     C          C   _1     C   _1       118.493
  bond angle:     C          C   _1     H   _1       119.647
  bond angle:     C   _1     C   _1     H   _1       121.860
  bond angle:     C          C   _2     C   _2       118.493
  bond angle:     C          C   _2     H   _2       119.647
  bond angle:     C   _2     C   _2     H   _2       121.860
  bond angle:     C   _1     C   _1     C            120.192
  bond angle:     C   _1     C   _1     H   _1       119.623
  bond angle:     C          C   _1     H   _1       120.185
  bond angle:     C   _2     C   _2     C            120.192
  bond angle:     C   _2     C   _2     H   _2       119.623
  bond angle:     C          C   _2     H   _2       120.185
  bond angle:     C   _1     C          C   _2       120.319
  bond angle:     C   _1     C          H            119.841
  bond angle:     C   _2     C          H            119.841
  bond angle:     C          N          O   _1       117.664
  bond angle:     C          N          O   _2       117.664
  bond angle:     O   _1     N          O   _2       124.671



@ Geometry converged in  7 iterations!

@ Energy at final geometry is       :    -436.637184 a.u.
@ Energy change during optimization :      -0.001363 a.u.
@                                             -3.577 kJ/mol


 Center of mass dipole origin  :    0.000000    0.000000   -0.383938

 Center of mass gauge origin   :    0.000000    0.000000   -0.383938


                 .------------------------------------------------.
                 | Starting in Static Property Section (ABACUS) - |
                 `------------------------------------------------'


 
     Date and time (Linux)  : Mon Jun 17 11:33:50 2019
     Host name              : Lab2-333-NPs                            


   ***************************************************************************
   ************************ FINAL RESULTS from ABACUS ************************
   ***************************************************************************


 
     Date and time (Linux)  : Mon Jun 17 11:33:50 2019
     Host name              : Lab2-333-NPs                            


                             Molecular geometry (au)
                             -----------------------

 C          0.0000000000            0.0000000000           -0.0502212903
 C   _1    -2.3036772316            0.0000000000           -1.3190018023
 C   _2     2.3036772316            0.0000000000           -1.3190018023
 C   _1    -2.2875315911            0.0000000000           -3.9490352250
 C   _2     2.2875315911            0.0000000000           -3.9490352250
 C          0.0000000000            0.0000000000           -5.2612780866
 N          0.0000000000            0.0000000000            2.7494176618
 O   _1    -2.0498811213            0.0000000000            3.8240081745
 O   _2     2.0498811213            0.0000000000            3.8240081745
 H   _1    -4.0460175755            0.0000000000           -0.2509488867
 H   _2     4.0460175755            0.0000000000           -0.2509488867
 H   _1    -4.0615558101            0.0000000000           -4.9722116748
 H   _2     4.0615558101            0.0000000000           -4.9722116748
 H          0.0000000000            0.0000000000           -7.3102077506





                        Molecular wave function and energy
                        ----------------------------------

     Spatial symmetry   1 ( A1  )
     Spin multiplicity  1
     2 * M_S            0
     State number       1
     Total charge       0

     Total energy       -436.6371836361 au (Hartrees)
                        -11881.50216428 eV
                          -1146390.7489 kJ/mol
                           -273993.9648 kcal/mol


                   Scalar Breit-Pauli relativistic corrections
                   -------------------------------------------

     Darwin correction:                          0.8699760291 au
     Mass-velocity correction:                  -1.0915124735 au

     Total relativistic correction:             -0.2215364444 au ( 0.0507%)
     Non-relativistic + relativistic energy:  -436.8587200805 au



      (Note that these corrections are NOT included in the results below.)


                                  Dipole moment
                                  -------------

                 au               Debye          C m (/(10**-30)
              1.933079           4.913396          16.389324


                             Dipole moment components
                             ------------------------

                 au               Debye          C m (/(10**-30)

      z     -1.93307873        -4.91339572       -16.38932397


   Units:   1 a.u. =   2.54175 Debye 
            1 a.u. =   8.47835 (10**-30) C m (SI)




   Interatomic separations (in Angstrom):
   --------------------------------------

            C           C   _1      C   _2      C   _1      C   _2      C     
            ------      ------      ------      ------      ------      ------
 C     :    0.000000
 C   _1:    1.391719    0.000000
 C   _2:    1.391719    2.438107    0.000000
 C   _1:    2.392065    1.391780    2.799956    0.000000
 C   _2:    2.392065    2.799956    1.391780    2.421019    0.000000
 C     :    2.757573    2.416230    2.416230    1.395542    1.395542    0.000000
 N     :    1.481505    2.474093    2.474093    3.745665    3.745665    4.239078
 O   _1:    2.319443    2.724875    3.565729    4.115239    4.710371    4.928582
 O   _2:    2.319443    3.565729    2.724875    4.710371    4.115239    4.928582
 H   _1:    2.143694    1.081451    3.407316    2.166922    3.881063    3.407904
 H   _2:    2.143694    3.407316    1.081451    3.881063    2.166922    3.407904
 H   _1:    3.376890    2.145360    3.883675    1.083722    3.403140    2.154719
 H   _2:    3.376890    3.883675    2.145360    3.403140    1.083722    2.154719
 H     :    3.841819    3.396703    3.396703    2.151500    2.151500    1.084247

            N           O   _1      O   _2      H   _1      H   _2      H   _1
            ------      ------      ------      ------      ------      ------
 N     :    0.000000
 O   _1:    1.224763    0.000000
 O   _2:    1.224763    2.169501    0.000000
 H   _1:    2.665523    2.401196    3.880181    0.000000
 H   _2:    2.665523    3.880181    2.401196    4.282121    0.000000
 H   _1:    4.616894    4.774936    5.667958    2.498398    4.964773    0.000000
 H   _2:    4.616894    5.667958    4.774936    4.964773    2.498398    4.298566
 H     :    5.323325    5.990996    5.990996    4.305675    4.305675    2.479943

            H   _2      H     
            ------      ------
 H   _2:    0.000000
 H     :    2.479943    0.000000


  Max    interatomic separation is    5.9910 Angstrom (   11.3213 Bohr)
  between atoms   14 and    8, "H     " and "O   _1".

  Min HX interatomic separation is    1.0815 Angstrom (    2.0436 Bohr)

  Min YX interatomic separation is    1.2248 Angstrom (    2.3145 Bohr)


  Bond distances (Angstrom):
  --------------------------

                  atom 1     atom 2       distance
                  ------     ------       --------
  bond distance:  C   _1     C            1.391719
  bond distance:  C   _2     C            1.391719
  bond distance:  C   _1     C   _1       1.391780
  bond distance:  C   _2     C   _2       1.391780
  bond distance:  C          C   _1       1.395542
  bond distance:  C          C   _2       1.395542
  bond distance:  N          C            1.481505
  bond distance:  O   _1     N            1.224763
  bond distance:  O   _2     N            1.224763
  bond distance:  H   _1     C   _1       1.081451
  bond distance:  H   _2     C   _2       1.081451
  bond distance:  H   _1     C   _1       1.083722
  bond distance:  H   _2     C   _2       1.083722
  bond distance:  H          C            1.084247


  Bond angles (degrees):
  ----------------------

                  atom 1     atom 2     atom 3         angle
                  ------     ------     ------         -----
  bond angle:     C   _1     C          C   _2       122.311
  bond angle:     C   _1     C          N            118.844
  bond angle:     C   _2     C          N            118.844
  bond angle:     C          C   _1     C   _1       118.493
  bond angle:     C          C   _1     H   _1       119.647
  bond angle:     C   _1     C   _1     H   _1       121.860
  bond angle:     C          C   _2     C   _2       118.493
  bond angle:     C          C   _2     H   _2       119.647
  bond angle:     C   _2     C   _2     H   _2       121.860
  bond angle:     C   _1     C   _1     C            120.192
  bond angle:     C   _1     C   _1     H   _1       119.623
  bond angle:     C          C   _1     H   _1       120.185
  bond angle:     C   _2     C   _2     C            120.192
  bond angle:     C   _2     C   _2     H   _2       119.623
  bond angle:     C          C   _2     H   _2       120.185
  bond angle:     C   _1     C          C   _2       120.319
  bond angle:     C   _1     C          H            119.841
  bond angle:     C   _2     C          H            119.841
  bond angle:     C          N          O   _1       117.664
  bond angle:     C          N          O   _2       117.664
  bond angle:     O   _1     N          O   _2       124.671


  Total CPU  time used in ABACUS:   0.12 seconds
  Total wall time used in ABACUS:   0.13 seconds


                   .-------------------------------------------.
                   | End of Static Property Section (ABACUS) - |
                   `-------------------------------------------'

  Total CPU  time used in DALTON: 18 minutes 31 seconds
  Total wall time used in DALTON: 18 minutes 48 seconds

 
     Date and time (Linux)  : Mon Jun 17 11:33:50 2019
     Host name              : Lab2-333-NPs                            
