

     ************************************************************************
     *************** Dalton - An Electronic Structure Program ***************
     ************************************************************************

    This is output from DALTON release Dalton2018.1 (2019)
         ( Web site: http://daltonprogram.org )

   ----------------------------------------------------------------------------

    NOTE:
     
    Dalton is an experimental code for the evaluation of molecular
    properties using (MC)SCF, DFT, CI, and CC wave functions.
    The authors accept no responsibility for the performance of
    the code or for the correctness of the results.
     
    The code (in whole or part) is provided under a licence and
    is not to be reproduced for further distribution without
    the written permission of the authors or their representatives.
     
    See the home page "http://daltonprogram.org" for further information.
     
    If results obtained with this code are published,
    the appropriate citations would be both of:
     
       K. Aidas, C. Angeli, K. L. Bak, V. Bakken, R. Bast,
       L. Boman, O. Christiansen, R. Cimiraglia, S. Coriani,
       P. Dahle, E. K. Dalskov, U. Ekstroem,
       T. Enevoldsen, J. J. Eriksen, P. Ettenhuber, B. Fernandez,
       L. Ferrighi, H. Fliegl, L. Frediani, K. Hald, A. Halkier,
       C. Haettig, H. Heiberg, T. Helgaker, A. C. Hennum,
       H. Hettema, E. Hjertenaes, S. Hoest, I.-M. Hoeyvik,
       M. F. Iozzi, B. Jansik, H. J. Aa. Jensen, D. Jonsson,
       P. Joergensen, J. Kauczor, S. Kirpekar,
       T. Kjaergaard, W. Klopper, S. Knecht, R. Kobayashi, H. Koch,
       J. Kongsted, A. Krapp, K. Kristensen, A. Ligabue,
       O. B. Lutnaes, J. I. Melo, K. V. Mikkelsen, R. H. Myhre,
       C. Neiss, C. B. Nielsen, P. Norman, J. Olsen,
       J. M. H. Olsen, A. Osted, M. J. Packer, F. Pawlowski,
       T. B. Pedersen, P. F. Provasi, S. Reine, Z. Rinkevicius,
       T. A. Ruden, K. Ruud, V. Rybkin, P. Salek, C. C. M. Samson,
       A. Sanchez de Meras, T. Saue, S. P. A. Sauer,
       B. Schimmelpfennig, K. Sneskov, A. H. Steindal,
       K. O. Sylvester-Hvid, P. R. Taylor, A. M. Teale,
       E. I. Tellgren, D. P. Tew, A. J. Thorvaldsen, L. Thoegersen,
       O. Vahtras, M. A. Watson, D. J. D. Wilson, M. Ziolkowski
       and H. Agren,
       "The Dalton quantum chemistry program system",
       WIREs Comput. Mol. Sci. 2014, 4:269–284 (doi: 10.1002/wcms.1172)
     
    and
     
       Dalton, a molecular electronic structure program,
       Release Dalton2018.1 (2019), see http://daltonprogram.org
   ----------------------------------------------------------------------------

    Authors in alphabetical order (major contribution(s) in parenthesis):

  Kestutis Aidas,           Vilnius University,           Lithuania   (QM/MM)
  Celestino Angeli,         University of Ferrara,        Italy       (NEVPT2)
  Keld L. Bak,              UNI-C,                        Denmark     (AOSOPPA, non-adiabatic coupling, magnetic properties)
  Vebjoern Bakken,          University of Oslo,           Norway      (DALTON; geometry optimizer, symmetry detection)
  Radovan Bast,             UiT The Arctic U. of Norway,  Norway      (DALTON installation and execution frameworks)
  Pablo Baudin,             University of Valencia,       Spain       (Cholesky excitation energies)
  Linus Boman,              NTNU,                         Norway      (Cholesky decomposition and subsystems)
  Ove Christiansen,         Aarhus University,            Denmark     (CC module)
  Renzo Cimiraglia,         University of Ferrara,        Italy       (NEVPT2)
  Sonia Coriani,            Technical Univ. of Denmark,   Denmark     (CC module, MCD in RESPONS)
  Janusz Cukras,            University of Trieste,        Italy       (MChD in RESPONS)
  Paal Dahle,               University of Oslo,           Norway      (Parallelization)
  Erik K. Dalskov,          UNI-C,                        Denmark     (SOPPA)
  Thomas Enevoldsen,        Univ. of Southern Denmark,    Denmark     (SOPPA)
  Janus J. Eriksen,         Aarhus University,            Denmark     (Polarizable embedding model, TDA)
  Rasmus Faber,             University of Copenhagen,     Denmark     (Vib.avg. NMR with SOPPA, parallel AO-SOPPA)
  Tobias Fahleson,          KTH Stockholm,                Sweden      (Damped cubic response)
  Berta Fernandez,          U. of Santiago de Compostela, Spain       (doublet spin, ESR in RESPONS)
  Lara Ferrighi,            Aarhus University,            Denmark     (PCM Cubic response)
  Heike Fliegl,             University of Oslo,           Norway      (CCSD(R12))
  Luca Frediani,            UiT The Arctic U. of Norway,  Norway      (PCM)
  Bin Gao,                  UiT The Arctic U. of Norway,  Norway      (Gen1Int library)
  Christof Haettig,         Ruhr-University Bochum,       Germany     (CC module)
  Kasper Hald,              Aarhus University,            Denmark     (CC module)
  Asger Halkier,            Aarhus University,            Denmark     (CC module)
  Frederik Beyer Hansen,    University of Copenhagen,     Denmark     (Parallel AO-SOPPA)
  Erik D. Hedegaard,        Univ. of Southern Denmark,    Denmark     (Polarizable embedding model, QM/MM)
  Hanne Heiberg,            University of Oslo,           Norway      (geometry analysis, selected one-electron integrals)
  Trygve Helgaker,          University of Oslo,           Norway      (DALTON; ABACUS, ERI, DFT modules, London, and much more)
  Alf Christian Hennum,     University of Oslo,           Norway      (Parity violation)
  Hinne Hettema,            University of Auckland,       New Zealand (quadratic response in RESPONS; SIRIUS supersymmetry)
  Eirik Hjertenaes,         NTNU,                         Norway      (Cholesky decomposition)
  Pi A. B. Haase,           University of Copenhagen,     Denmark     (Triplet AO-SOPPA)
  Maria Francesca Iozzi,    University of Oslo,           Norway      (RPA)
  Christoph Jacob           TU Braunschweig               Germany     (Frozen density embedding model)
  Brano Jansik              Technical Univ. of Ostrava    Czech Rep.  (DFT cubic response)
  Hans Joergen Aa. Jensen,  Univ. of Southern Denmark,    Denmark     (DALTON; SIRIUS, RESPONS, ABACUS modules, London, and much more)
  Dan Jonsson,              UiT The Arctic U. of Norway,  Norway      (cubic response in RESPONS module)
  Poul Joergensen,          Aarhus University,            Denmark     (RESPONS, ABACUS, and CC modules)
  Maciej Kaminski,          University of Warsaw,         Poland      (CPPh in RESPONS)
  Joanna Kauczor,           Linkoeping University,        Sweden      (Complex polarization propagator (CPP) module)
  Sheela Kirpekar,          Univ. of Southern Denmark,    Denmark     (Mass-velocity & Darwin integrals)
  Wim Klopper,              KIT Karlsruhe,                Germany     (R12 code in CC, SIRIUS, and ABACUS modules)
  Stefan Knecht,            ETH Zurich,                   Switzerland (Parallel CI and MCSCF)
  Rika Kobayashi,           Australian National Univ.,    Australia   (DIIS in CC, London in MCSCF)
  Henrik Koch,              NTNU,                         Norway      (CC module, Cholesky decomposition)
  Jacob Kongsted,           Univ. of Southern Denmark,    Denmark     (Polarizable embedding model, QM/MM)
  Andrea Ligabue,           University of Modena,         Italy       (CTOCD, AOSOPPA)
  Nanna H. List             Univ. of Southern Denmark,    Denmark     (Polarizable embedding model)
  Ola B. Lutnaes,           University of Oslo,           Norway      (DFT Hessian)
  Juan I. Melo,             University of Buenos Aires,   Argentina   (LRESC, Relativistic Effects on NMR Shieldings)
  Kurt V. Mikkelsen,        University of Copenhagen,     Denmark     (MC-SCRF and QM/MM)
  Rolf H. Myhre,            NTNU,                         Norway      (Subsystems and CC3)
  Christian Neiss,          Univ. Erlangen-Nuernberg,     Germany     (CCSD(R12))
  Christian B. Nielsen,     University of Copenhagen,     Denmark     (QM/MM)
  Patrick Norman,           KTH Stockholm,                Sweden      (Cubic response and complex frequency response in RESPONS)
  Jeppe Olsen,              Aarhus University,            Denmark     (SIRIUS CI/density modules)
  Jogvan Magnus H. Olsen,   Univ. of Southern Denmark,    Denmark     (Polarizable embedding model, QM/MM)
  Anders Osted,             Copenhagen University,        Denmark     (QM/MM)
  Martin J. Packer,         University of Sheffield,      UK          (SOPPA)
  Filip Pawlowski,          Kazimierz Wielki University,  Poland      (CC3)
  Morten N. Pedersen,       Univ. of Southern Denmark,    Denmark     (Polarizable embedding model)
  Thomas B. Pedersen,       University of Oslo,           Norway      (Cholesky decomposition)
  Patricio F. Provasi,      University of Northeastern,   Argentina   (Analysis of coupling constants in localized orbitals)
  Zilvinas Rinkevicius,     KTH Stockholm,                Sweden      (open-shell DFT, ESR)
  Elias Rudberg,            KTH Stockholm,                Sweden      (DFT grid and basis info)
  Torgeir A. Ruden,         University of Oslo,           Norway      (Numerical derivatives in ABACUS)
  Kenneth Ruud,             UiT The Arctic U. of Norway,  Norway      (DALTON; ABACUS magnetic properties and much more)
  Pawel Salek,              KTH Stockholm,                Sweden      (DALTON; DFT code)
  Claire C. M. Samson       University of Karlsruhe       Germany     (Boys localization, r12 integrals in ERI)
  Alfredo Sanchez de Meras, University of Valencia,       Spain       (CC module, Cholesky decomposition)
  Trond Saue,               Paul Sabatier University,     France      (direct Fock matrix construction)
  Stephan P. A. Sauer,      University of Copenhagen,     Denmark     (SOPPA(CCSD), SOPPA prop., AOSOPPA, vibrational g-factors)
  Andre S. P. Gomes,        CNRS/Universite de Lille,     France      (Frozen density embedding model)
  Bernd Schimmelpfennig,    Forschungszentrum Karlsruhe,  Germany     (AMFI module)
  Kristian Sneskov,         Aarhus University,            Denmark     (Polarizable embedding model, QM/MM)
  Arnfinn H. Steindal,      UiT The Arctic U. of Norway,  Norway      (parallel QM/MM, Polarizable embedding model)
  Casper Steinmann,         Univ. of Southern Denmark,    Denmark     (QFIT, Polarizable embedding model)
  K. O. Sylvester-Hvid,     University of Copenhagen,     Denmark     (MC-SCRF)
  Peter R. Taylor,          VLSCI/Univ. of Melbourne,     Australia   (Symmetry handling ABACUS, integral transformation)
  Andrew M. Teale,          University of Nottingham,     England     (DFT-AC, DFT-D)
  David P. Tew,             University of Bristol,        England     (CCSD(R12))
  Olav Vahtras,             KTH Stockholm,                Sweden      (triplet response, spin-orbit, ESR, TDDFT, open-shell DFT)
  Lucas Visscher,           Vrije Universiteit Amsterdam, Netherlands (Frozen density embedding model)
  David J. Wilson,          La Trobe University,          Australia   (DFT Hessian and DFT magnetizabilities)
  Hans Agren,               KTH Stockholm,                Sweden      (SIRIUS module, RESPONS, MC-SCRF solvation model)
 --------------------------------------------------------------------------------

     Date and time (Linux)  : Fri Jun 14 17:36:22 2019
     Host name              : Lab2-333-NPs                            

 * Work memory size             :    64000000 =  488.28 megabytes.

 * Directories for basis set searches:
   1) /home/lab333/dalton/build_2018_atlas
   2) /home/lab333/dalton/build_2018_atlas/basis


Compilation information
-----------------------

 Who compiled             | lab333
 Host                     | Lab2-333-NPs
 System                   | Linux-4.4.0-43-Microsoft
 CMake generator          | Unix Makefiles
 Processor                | x86_64
 64-bit integers          | OFF
 MPI                      | OFF
 Fortran compiler         | /usr/bin/gfortran
 Fortran compiler version | GNU Fortran (Ubuntu 7.3.0-27ubuntu1~18.04) 7.3.0
 C compiler               | /usr/bin/gcc
 C compiler version       | gcc (Ubuntu 7.3.0-27ubuntu1~18.04) 7.3.0
 C++ compiler             | /usr/bin/g++
 C++ compiler version     | g++ (Ubuntu 7.3.0-27ubuntu1~18.04) 7.3.0
 BLAS                     | /usr/lib/x86_64-linux-gnu/libf77blas.so;/usr/lib/x
                          | 86_64-linux-gnu/libcblas.so;/usr/lib/x86_64-linux-
                          | gnu/libatlas.so
 LAPACK                   | /usr/lib/x86_64-linux-gnu/libatlas.so;/usr/lib/x86
                          | _64-linux-gnu/atlas/liblapack.so
 Static linking           | OFF
 Last Git revision        | da625bf48c74028e805616daee31bc5d76b3a20d
 Git branch               | (HEAD detached at Dalton2018.1)
 Configuration time       | 2019-01-18 10:20:51.437510


   Content of the .dal input file
 ----------------------------------

**DALTON INPUT
.RUN RESPONSE
**WAVE FUNCTIONS
.HF
**RESPONSE
*LINEAR
.DIPLEN
.FREQUENCIES
1
0.057
**END OF DALTON INPUT



   Content of the .mol file
 ----------------------------

BASIS
aug-cc-pCVDZ
 nitrobenzene
 Generated by the Dalton Input File Plugin for Avogadro
Atomtypes=4 Angstrom
Charge=6.0 Atoms=6
C          0.00000        0.00000        0.00000
C          1.21322        0.10213       -0.69427
C          1.20687        0.10160       -2.09021
C          0.00000        0.00000       -2.78479
C         -1.20687       -0.10160       -2.09021
C         -1.21322       -0.10213       -0.69427
Charge=7.0 Atoms=1
N          0.00000       -0.00000        1.46794
Charge=8.0 Atoms=2
O          1.09303        0.09202        2.04531
O         -1.09303       -0.09202        2.04531
Charge=1.0 Atoms=5
H          2.16204        0.18201       -0.16792
H          2.14326        0.18043       -2.63827
H          0.00000        0.00000       -3.87287
H         -2.14326       -0.18043       -2.63827
H         -2.16204       -0.18201       -0.16792


       *******************************************************************
       *********** Output from DALTON general input processing ***********
       *******************************************************************

 --------------------------------------------------------------------------------
   Overall default print level:    0
   Print level for DALTON.STAT:    1

    HERMIT 1- and 2-electron integral sections will be executed
    "Old" integral transformation used (limited to max 255 basis functions)
    Wave function sections will be executed (SIRIUS module)
    Dynamic molecular response properties section will be executed (RESPONSE module)
 --------------------------------------------------------------------------------


   ****************************************************************************
   *************** Output of molecule and basis set information ***************
   ****************************************************************************


    The two title cards from your ".mol" input:
    ------------------------------------------------------------------------
 1:  nitrobenzene                                                           
 2:  Generated by the Dalton Input File Plugin for Avogadro                 
    ------------------------------------------------------------------------

  Coordinates are entered in Angstrom and converted to atomic units.
          - Conversion factor : 1 bohr = 0.52917721 A

  Atomic type no.    1
  --------------------
  Nuclear charge:   6.00000
  Number of symmetry independent centers:    6
  Number of basis sets to read;    2
  Basis set file used for this atomic type with Z =   6 :
     "/home/lab333/dalton/build_2018_atlas/basis/aug-cc-pCVDZ"

  Atomic type no.    2
  --------------------
  Nuclear charge:   7.00000
  Number of symmetry independent centers:    1
  Number of basis sets to read;    2
  Basis set file used for this atomic type with Z =   7 :
     "/home/lab333/dalton/build_2018_atlas/basis/aug-cc-pCVDZ"

  Atomic type no.    3
  --------------------
  Nuclear charge:   8.00000
  Number of symmetry independent centers:    2
  Number of basis sets to read;    2
  Basis set file used for this atomic type with Z =   8 :
     "/home/lab333/dalton/build_2018_atlas/basis/aug-cc-pCVDZ"

  Atomic type no.    4
  --------------------
  Nuclear charge:   1.00000
  Number of symmetry independent centers:    5
  Number of basis sets to read;    2
  Basis set file used for this atomic type with Z =   1 :
     "/home/lab333/dalton/build_2018_atlas/basis/aug-cc-pCVDZ"


                      SYMADD: Requested addition of symmetry
                      --------------------------------------

 Symmetry test threshold:  5.00E-06

@   The molecule is centered at center of mass and rotated
@   so principal axes of inertia are along coordinate axes.

 Symmetry class found: C(2v)          

 Symmetry Independent Centres             
 ----------------------------
       8 :      2.07283426     0.00000691     4.23093716  Isotope  1
       7 :      0.00000000     0.00000000     3.13986598  Isotope  1
       6 :      0.00000000     0.00000000     0.36586142  Isotope  1
       6 :      2.30076255    -0.00000844    -0.94611874  Isotope  1
       6 :      2.28872107     0.00000000    -3.58406303  Isotope  1
       6 :      0.00000000     0.00000000    -4.89662900  Isotope  1
       1 :      4.10011548     0.00000000     0.04853861  Isotope  1
       1 :      4.06450105     0.00000000    -4.61974633  Isotope  1
       1 :      0.00000000     0.00000000    -6.95280220  Isotope  1

 The following symmetry element was found:   XY       


                         SYMGRP: Point group information
                         -------------------------------

@    Full point group is: C(2v)          
@    Represented as:      C2 

@  * The irrep name for each symmetry:    1: A      2: B  

   * The point group was generated by:

      Rotation about the z-axis

   * Group multiplication table

        |  E   C2z
   -----+----------
     E  |  E   C2z
    C2z | C2z   E 

   * Character table

        |  E   C2z
   -----+----------
    A   |   1    1
    B   |   1   -1

   * Direct product table

        | A    B  
   -----+----------
    A   | A    B  
    B   | B    A  


                                 Isotopic Masses
                                 ---------------

                           C          12.000000
                           C   _1     12.000000
                           C   _2     12.000000
                           C   _1     12.000000
                           C   _2     12.000000
                           C          12.000000
                           N          14.003074
                           O   _1     15.994915
                           O   _2     15.994915
                           H   _1      1.007825
                           H   _2      1.007825
                           H   _1      1.007825
                           H   _2      1.007825
                           H           1.007825

                       Total mass:   123.032029 amu
                       Natural abundance:  92.716 %

 Center-of-mass coordinates (a.u.):    0.000000    0.000000   -0.000000


  Atoms and basis sets
  --------------------

  Number of atom types :    4
  Total number of atoms:   14

  Basis set used is "aug-cc-pCVDZ" from the basis set library.

  label    atoms   charge   prim   cont     basis
  ----------------------------------------------------------------------
  C           6    6.0000    39    27      [11s6p2d|5s4p2d]                                   
  N           1    7.0000    39    27      [11s6p2d|5s4p2d]                                   
  O           2    8.0000    39    27      [11s6p2d|5s4p2d]                                   
  H           5    1.0000    11     9      [5s2p|3s2p]                                        
  ----------------------------------------------------------------------
  total:     14   64.0000   406   288
  ----------------------------------------------------------------------
  Spherical harmonic basis used.

  Threshold for neglecting AO integrals:  1.00D-12


  Symmetry Coordinates
  --------------------

  Number of coordinates in each symmetry:    19   23


   Interatomic separations (in Angstrom):
   --------------------------------------

            C           C   _1      C   _2      C   _1      C   _2      C     
            ------      ------      ------      ------      ------      ------
 C     :    0.000000
 C   _1:    1.401551    0.000000
 C   _2:    1.401551    2.435022    0.000000
 C   _1:    2.415747    1.395955    2.801248    0.000000
 C   _2:    2.415747    2.801248    1.395955    2.422278    0.000000
 C     :    2.784790    2.419216    2.419216    1.396173    1.396173    0.000000
 N     :    1.467940    2.481428    2.481428    3.758629    3.758629    4.252730
 O   _1:    2.320878    2.742234    3.586333    4.137098    4.735985    4.953085
 O   _2:    2.320878    3.586333    2.742234    4.735985    4.137098    4.953085
 H   _1:    2.176176    1.087973    3.427851    2.148026    3.889111    3.399346
 H   _2:    2.176176    3.427851    1.087973    3.889111    2.148026    3.399346
 H   _1:    3.403908    2.156442    3.889079    1.087847    3.406359    2.155826
 H   _2:    3.403908    3.889079    2.156442    3.406359    1.087847    2.155826
 H     :    3.872870    3.403797    3.403797    2.155165    2.155165    1.088080

            N           O   _1      O   _2      H   _1      H   _2      H   _1
            ------      ------      ------      ------      ------      ------
 N     :    0.000000
 O   _1:    1.239572    0.000000
 O   _2:    1.239572    2.193793    0.000000
 H   _1:    2.717275    2.459526    3.945752    0.000000
 H   _2:    2.717275    3.945752    2.459526    4.339375    0.000000
 H   _1:    4.635416    4.800700    5.699449    2.470422    4.976907    0.000000
 H   _2:    4.635416    5.699449    4.800700    4.976907    2.470422    4.301683
 H     :    5.340810    6.018973    6.018973    4.293507    4.293507    2.479991

            H   _2      H     
            ------      ------
 H   _2:    0.000000
 H     :    2.479991    0.000000


  Max    interatomic separation is    6.0190 Angstrom (   11.3742 Bohr)
  between atoms   14 and    8, "H     " and "O   _1".

  Min HX interatomic separation is    1.0878 Angstrom (    2.0557 Bohr)

  Min YX interatomic separation is    1.2396 Angstrom (    2.3425 Bohr)


  Bond distances (Angstrom):
  --------------------------

                  atom 1     atom 2       distance
                  ------     ------       --------
  bond distance:  C   _1     C            1.401551
  bond distance:  C   _2     C            1.401551
  bond distance:  C   _1     C   _1       1.395955
  bond distance:  C   _2     C   _2       1.395955
  bond distance:  C          C   _1       1.396173
  bond distance:  C          C   _2       1.396173
  bond distance:  N          C            1.467940
  bond distance:  O   _1     N            1.239572
  bond distance:  O   _2     N            1.239572
  bond distance:  H   _1     C   _1       1.087973
  bond distance:  H   _2     C   _2       1.087973
  bond distance:  H   _1     C   _1       1.087847
  bond distance:  H   _2     C   _2       1.087847
  bond distance:  H          C            1.088080


  Bond angles (degrees):
  ----------------------

                  atom 1     atom 2     atom 3         angle
                  ------     ------     ------         -----
  bond angle:     C   _1     C          C   _2       120.613
  bond angle:     C   _1     C          N            119.693
  bond angle:     C   _2     C          N            119.693
  bond angle:     C          C   _1     C   _1       119.432
  bond angle:     C          C   _1     H   _1       121.373
  bond angle:     C   _1     C   _1     H   _1       119.195
  bond angle:     C          C   _2     C   _2       119.432
  bond angle:     C          C   _2     H   _2       121.373
  bond angle:     C   _2     C   _2     H   _2       119.195
  bond angle:     C   _1     C   _1     C            120.096
  bond angle:     C   _1     C   _1     H   _1       119.990
  bond angle:     C          C   _1     H   _1       119.914
  bond angle:     C   _2     C   _2     C            120.096
  bond angle:     C   _2     C   _2     H   _2       119.990
  bond angle:     C          C   _2     H   _2       119.914
  bond angle:     C   _1     C          C   _2       120.332
  bond angle:     C   _1     C          H            119.834
  bond angle:     C   _2     C          H            119.834
  bond angle:     C          N          O   _1       117.761
  bond angle:     C          N          O   _2       117.761
  bond angle:     O   _1     N          O   _2       124.478




 Principal moments of inertia (u*A**2) and principal axes
 --------------------------------------------------------

   IA     128.083579          0.000000    0.000000    1.000000
   IB     398.073290          1.000000   -0.000000    0.000000
   IC     526.156870          0.000000    1.000000    0.000000


 Rotational constants
 --------------------

@    The molecule is planar.

               A                   B                   C

           3945.6971           1269.5627            960.5101 MHz
            0.131614            0.042348            0.032039 cm-1


@  Nuclear repulsion energy :  410.144552036057 Hartree


  Symmetry Orbitals
  -----------------

  Number of orbitals in each symmetry:         149  139


  Symmetry  A  ( 1)

    1     C        1s         1
    2     C        1s         2
    3     C        1s         3
    4     C        1s         4
    5     C        1s         5
    6     C        2pz        8
    7     C        2pz       11
    8     C        2pz       14
    9     C        2pz       17
   10     C        3d2-      18
   11     C        3d0       20
   12     C        3d2+      22
   13     C        3d2-      23
   14     C        3d0       25
   15     C        3d2+      27
   16     C        1s        28 +   29
   17     C        1s        30 +   31
   18     C        1s        32 +   33
   19     C        1s        34 +   35
   20     C        1s        36 +   37
   21     C        2px       38 -   39
   22     C        2py       40 -   41
   23     C        2pz       42 +   43
   24     C        2px       44 -   45
   25     C        2py       46 -   47
   26     C        2pz       48 +   49
   27     C        2px       50 -   51
   28     C        2py       52 -   53
   29     C        2pz       54 +   55
   30     C        2px       56 -   57
   31     C        2py       58 -   59
   32     C        2pz       60 +   61
   33     C        3d2-      62 +   63
   34     C        3d1-      64 -   65
   35     C        3d0       66 +   67
   36     C        3d1+      68 -   69
   37     C        3d2+      70 +   71
   38     C        3d2-      72 +   73
   39     C        3d1-      74 -   75
   40     C        3d0       76 +   77
   41     C        3d1+      78 -   79
   42     C        3d2+      80 +   81
   43     C        1s        82 +   83
   44     C        1s        84 +   85
   45     C        1s        86 +   87
   46     C        1s        88 +   89
   47     C        1s        90 +   91
   48     C        2px       92 -   93
   49     C        2py       94 -   95
   50     C        2pz       96 +   97
   51     C        2px       98 -   99
   52     C        2py      100 -  101
   53     C        2pz      102 +  103
   54     C        2px      104 -  105
   55     C        2py      106 -  107
   56     C        2pz      108 +  109
   57     C        2px      110 -  111
   58     C        2py      112 -  113
   59     C        2pz      114 +  115
   60     C        3d2-     116 +  117
   61     C        3d1-     118 -  119
   62     C        3d0      120 +  121
   63     C        3d1+     122 -  123
   64     C        3d2+     124 +  125
   65     C        3d2-     126 +  127
   66     C        3d1-     128 -  129
   67     C        3d0      130 +  131
   68     C        3d1+     132 -  133
   69     C        3d2+     134 +  135
   70     C        1s       136
   71     C        1s       137
   72     C        1s       138
   73     C        1s       139
   74     C        1s       140
   75     C        2pz      143
   76     C        2pz      146
   77     C        2pz      149
   78     C        2pz      152
   79     C        3d2-     153
   80     C        3d0      155
   81     C        3d2+     157
   82     C        3d2-     158
   83     C        3d0      160
   84     C        3d2+     162
   85     N        1s       163
   86     N        1s       164
   87     N        1s       165
   88     N        1s       166
   89     N        1s       167
   90     N        2pz      170
   91     N        2pz      173
   92     N        2pz      176
   93     N        2pz      179
   94     N        3d2-     180
   95     N        3d0      182
   96     N        3d2+     184
   97     N        3d2-     185
   98     N        3d0      187
   99     N        3d2+     189
  100     O        1s       190 +  191
  101     O        1s       192 +  193
  102     O        1s       194 +  195
  103     O        1s       196 +  197
  104     O        1s       198 +  199
  105     O        2px      200 -  201
  106     O        2py      202 -  203
  107     O        2pz      204 +  205
  108     O        2px      206 -  207
  109     O        2py      208 -  209
  110     O        2pz      210 +  211
  111     O        2px      212 -  213
  112     O        2py      214 -  215
  113     O        2pz      216 +  217
  114     O        2px      218 -  219
  115     O        2py      220 -  221
  116     O        2pz      222 +  223
  117     O        3d2-     224 +  225
  118     O        3d1-     226 -  227
  119     O        3d0      228 +  229
  120     O        3d1+     230 -  231
  121     O        3d2+     232 +  233
  122     O        3d2-     234 +  235
  123     O        3d1-     236 -  237
  124     O        3d0      238 +  239
  125     O        3d1+     240 -  241
  126     O        3d2+     242 +  243
  127     H        1s       244 +  245
  128     H        1s       246 +  247
  129     H        1s       248 +  249
  130     H        2px      250 -  251
  131     H        2py      252 -  253
  132     H        2pz      254 +  255
  133     H        2px      256 -  257
  134     H        2py      258 -  259
  135     H        2pz      260 +  261
  136     H        1s       262 +  263
  137     H        1s       264 +  265
  138     H        1s       266 +  267
  139     H        2px      268 -  269
  140     H        2py      270 -  271
  141     H        2pz      272 +  273
  142     H        2px      274 -  275
  143     H        2py      276 -  277
  144     H        2pz      278 +  279
  145     H        1s       280
  146     H        1s       281
  147     H        1s       282
  148     H        2pz      285
  149     H        2pz      288


  Symmetry  B  ( 2)

  150     C        2px        6
  151     C        2py        7
  152     C        2px        9
  153     C        2py       10
  154     C        2px       12
  155     C        2py       13
  156     C        2px       15
  157     C        2py       16
  158     C        3d1-      19
  159     C        3d1+      21
  160     C        3d1-      24
  161     C        3d1+      26
  162     C        1s        28 -   29
  163     C        1s        30 -   31
  164     C        1s        32 -   33
  165     C        1s        34 -   35
  166     C        1s        36 -   37
  167     C        2px       38 +   39
  168     C        2py       40 +   41
  169     C        2pz       42 -   43
  170     C        2px       44 +   45
  171     C        2py       46 +   47
  172     C        2pz       48 -   49
  173     C        2px       50 +   51
  174     C        2py       52 +   53
  175     C        2pz       54 -   55
  176     C        2px       56 +   57
  177     C        2py       58 +   59
  178     C        2pz       60 -   61
  179     C        3d2-      62 -   63
  180     C        3d1-      64 +   65
  181     C        3d0       66 -   67
  182     C        3d1+      68 +   69
  183     C        3d2+      70 -   71
  184     C        3d2-      72 -   73
  185     C        3d1-      74 +   75
  186     C        3d0       76 -   77
  187     C        3d1+      78 +   79
  188     C        3d2+      80 -   81
  189     C        1s        82 -   83
  190     C        1s        84 -   85
  191     C        1s        86 -   87
  192     C        1s        88 -   89
  193     C        1s        90 -   91
  194     C        2px       92 +   93
  195     C        2py       94 +   95
  196     C        2pz       96 -   97
  197     C        2px       98 +   99
  198     C        2py      100 +  101
  199     C        2pz      102 -  103
  200     C        2px      104 +  105
  201     C        2py      106 +  107
  202     C        2pz      108 -  109
  203     C        2px      110 +  111
  204     C        2py      112 +  113
  205     C        2pz      114 -  115
  206     C        3d2-     116 -  117
  207     C        3d1-     118 +  119
  208     C        3d0      120 -  121
  209     C        3d1+     122 +  123
  210     C        3d2+     124 -  125
  211     C        3d2-     126 -  127
  212     C        3d1-     128 +  129
  213     C        3d0      130 -  131
  214     C        3d1+     132 +  133
  215     C        3d2+     134 -  135
  216     C        2px      141
  217     C        2py      142
  218     C        2px      144
  219     C        2py      145
  220     C        2px      147
  221     C        2py      148
  222     C        2px      150
  223     C        2py      151
  224     C        3d1-     154
  225     C        3d1+     156
  226     C        3d1-     159
  227     C        3d1+     161
  228     N        2px      168
  229     N        2py      169
  230     N        2px      171
  231     N        2py      172
  232     N        2px      174
  233     N        2py      175
  234     N        2px      177
  235     N        2py      178
  236     N        3d1-     181
  237     N        3d1+     183
  238     N        3d1-     186
  239     N        3d1+     188
  240     O        1s       190 -  191
  241     O        1s       192 -  193
  242     O        1s       194 -  195
  243     O        1s       196 -  197
  244     O        1s       198 -  199
  245     O        2px      200 +  201
  246     O        2py      202 +  203
  247     O        2pz      204 -  205
  248     O        2px      206 +  207
  249     O        2py      208 +  209
  250     O        2pz      210 -  211
  251     O        2px      212 +  213
  252     O        2py      214 +  215
  253     O        2pz      216 -  217
  254     O        2px      218 +  219
  255     O        2py      220 +  221
  256     O        2pz      222 -  223
  257     O        3d2-     224 -  225
  258     O        3d1-     226 +  227
  259     O        3d0      228 -  229
  260     O        3d1+     230 +  231
  261     O        3d2+     232 -  233
  262     O        3d2-     234 -  235
  263     O        3d1-     236 +  237
  264     O        3d0      238 -  239
  265     O        3d1+     240 +  241
  266     O        3d2+     242 -  243
  267     H        1s       244 -  245
  268     H        1s       246 -  247
  269     H        1s       248 -  249
  270     H        2px      250 +  251
  271     H        2py      252 +  253
  272     H        2pz      254 -  255
  273     H        2px      256 +  257
  274     H        2py      258 +  259
  275     H        2pz      260 -  261
  276     H        1s       262 -  263
  277     H        1s       264 -  265
  278     H        1s       266 -  267
  279     H        2px      268 +  269
  280     H        2py      270 +  271
  281     H        2pz      272 -  273
  282     H        2px      274 +  275
  283     H        2py      276 +  277
  284     H        2pz      278 -  279
  285     H        2px      283
  286     H        2py      284
  287     H        2px      286
  288     H        2py      287

  Symmetries of electric field:  B  (2)  B  (2)  A  (1)

  Symmetries of magnetic field:  B  (2)  B  (2)  A  (1)


                     .---------------------------------------.
                     | Starting in Integral Section (HERMIT) |
                     `---------------------------------------'



 ***************************************************************************************
 ****************** Output from **INTEGRALS input processing (HERMIT) ******************
 ***************************************************************************************


 - Using defaults, no **INTEGRALS input found

 Default print level:        1

 Calculation of one- and two-electron Hamiltonian integrals.

 Center of mass  (bohr):      0.000000000000      0.000000000000     -0.000000000000
 Operator center (bohr):      0.000000000000      0.000000000000      0.000000000000
 Gauge origin    (bohr):      0.000000000000      0.000000000000     -0.000000000000
 Dipole origin   (bohr):      0.000000000000      0.000000000000     -0.000000000000


     ************************************************************************
     ************************** Output from HERINT **************************
     ************************************************************************



                      Nuclear contribution to dipole moments
                      --------------------------------------

                 au               Debye          C m (/(10**-30)

      z     -7.96794794       -20.25250226       -67.55507592



 Threshold for neglecting two-electron integrals:  1.00D-12
 HERMIT - Number of two-electron integrals written:   328560256 ( 37.9% )
 HERMIT - Megabytes written:                           5015.526

  Time used in TWOINT     is      1 minute   0 seconds
  Total CPU  time used in HERMIT:  1 minute   0 seconds
  Total wall time used in HERMIT:  1 minute   5 seconds


                        .----------------------------------.
                        | End of Integral Section (HERMIT) |
                        `----------------------------------'



                   .--------------------------------------------.
                   | Starting in Wave Function Section (SIRIUS) |
                   `--------------------------------------------'


 *** Output from Huckel module :

     Using EWMO model:          F
     Using EHT  model:          T
     Number of Huckel orbitals each symmetry:   27   23

 Huckel EHT eigenvalues for symmetry :  1
          -20.694948     -15.704696     -11.413522     -11.393995     -11.376468
          -11.362318      -1.737813      -1.550787      -1.194753      -0.945270
           -0.818648      -0.779912      -0.643968      -0.593767      -0.590915
           -0.496331      -0.459667      -0.429836      -0.332569      -0.289271
           -0.247606      -0.225211      -0.215741      -0.206731      -0.178899
           -0.166799      -0.161016

 Huckel EHT eigenvalues for symmetry :  2
          -20.699428     -11.395207     -11.377111      -1.396317      -1.202783
           -0.877491      -0.796648      -0.670162      -0.648186      -0.570596
           -0.527553      -0.479509      -0.467503      -0.416313      -0.386075
           -0.282204      -0.275974      -0.237202      -0.213734      -0.203533
           -0.177547      -0.166345      -0.164322

INFO: no P-SUPMAT because more than 255 basis functions

 **********************************************************************
 *SIRIUS* a direct, restricted step, second order MCSCF program       *
 **********************************************************************

 
     Date and time (Linux)  : Fri Jun 14 17:37:27 2019
     Host name              : Lab2-333-NPs                            

 Title lines from ".mol" input file:
      nitrobenzene                                                           
      Generated by the Dalton Input File Plugin for Avogadro                 

 Print level on unit LUPRI =   2 is   0
 Print level on unit LUW4  =   2 is   5

@    Restricted, closed shell Hartree-Fock calculation.

@    Time-dependent Hartree-Fock calculation (random phase approximation).

 Initial molecular orbitals are obtained according to
 ".MOSTART EHT   " input option

     Wave function specification
     ============================
@    Wave function type        --- HF ---
@    Number of closed shell electrons          64
@    Number of electrons in active shells       0
@    Total charge of the molecule               0

@    Spin multiplicity and 2 M_S                1         0
@    Total number of symmetries                 2 (point group: C2 )
@    Reference state symmetry                   1 (irrep name : A  )

     Orbital specifications
     ======================
@    Abelian symmetry species          All |    1    2
@                                          |  A    B  
                                       --- |  ---  ---
@    Total number of orbitals          288 |  149  139
@    Number of basis functions         288 |  149  139

      ** Automatic occupation of RHF orbitals **

      -- Initial occupation of symmetries is determined from extended Huckel guess.           
      -- Initial occupation of symmetries is :
@    Occupied SCF orbitals              32 |   18   14

     Maximum number of Fock   iterations      0
     Maximum number of DIIS   iterations     60
     Maximum number of QC-SCF iterations     60
     Threshold for SCF convergence     1.00D-05

    INFORMATION: Switched to "new" integral transformation (from 1988 ;-) )
    because more than 255 basis functions.


 ***********************************************
 ***** DIIS acceleration of SCF iterations *****
 ***********************************************

 C1-DIIS algorithm; max error vectors =    8

 Automatic occupation of symmetries with  64 electrons.

 Iter     Total energy    Error norm  Delta(E)    SCF occupation
 -----------------------------------------------------------------------------
@  1  -432.243659101       6.45D+00  -4.32D+02    18  14
      Virial theorem: -V/T =      1.998904
@    MULPOP   C       0.42; C   _1  0.26; C   _2  0.26; C   _1  0.24; C   _2  0.24; C       0.34; N       1.30; O   _1 -1.04; O   _2 -1.04; H   _1 -0.21; 
@             H   _2 -0.21; H   _1 -0.19; H   _2 -0.19; H      -0.19; 
   1  Level shift: doubly occupied orbital energies shifted by -2.00D-01
 -----------------------------------------------------------------------------
@  2  -433.813140180       3.01D+00  -1.57D+00    18  14
      Virial theorem: -V/T =      2.002097
@    MULPOP   C       0.90; C   _1  0.44; C   _2  0.44; C   _1  0.23; C   _2  0.23; C       0.44; N       0.33; O   _1 -0.51; O   _2 -0.51; H   _1 -0.39; 
@             H   _2 -0.39; H   _1 -0.40; H   _2 -0.40; H      -0.40; 
   2  Level shift: doubly occupied orbital energies shifted by -1.00D-01
 -----------------------------------------------------------------------------
@  3  -434.201111606       7.26D-01  -3.88D-01    18  14
      Virial theorem: -V/T =      2.001279
@    MULPOP   C       1.68; C   _1  0.35; C   _2  0.35; C   _1  0.31; C   _2  0.31; C       0.32; N       0.67; O   _1 -0.89; O   _2 -0.89; H   _1 -0.45; 
@             H   _2 -0.45; H   _1 -0.44; H   _2 -0.44; H      -0.44; 
   3  Level shift: doubly occupied orbital energies shifted by -2.50D-02
 -----------------------------------------------------------------------------
@  4  -434.227592650       1.93D-01  -2.65D-02    18  14
      Virial theorem: -V/T =      2.003107
@    MULPOP   C       1.77; C   _1  0.30; C   _2  0.30; C   _1  0.39; C   _2  0.39; C       0.31; N       0.51; O   _1 -0.86; O   _2 -0.86; H   _1 -0.45; 
@             H   _2 -0.45; H   _1 -0.46; H   _2 -0.46; H      -0.45; 
   4  Level shift: doubly occupied orbital energies shifted by -1.25D-02
 -----------------------------------------------------------------------------
@  5  -434.230495485       5.78D-02  -2.90D-03    18  14
      Virial theorem: -V/T =      2.002538
@    MULPOP   C       1.81; C   _1  0.29; C   _2  0.29; C   _1  0.38; C   _2  0.38; C       0.28; N       0.50; O   _1 -0.86; O   _2 -0.86; H   _1 -0.44; 
@             H   _2 -0.44; H   _1 -0.45; H   _2 -0.45; H      -0.44; 
 -----------------------------------------------------------------------------
@  6  -434.230873211       1.64D-02  -3.78D-04    18  14
      Virial theorem: -V/T =      2.002446
@    MULPOP   C       1.82; C   _1  0.28; C   _2  0.28; C   _1  0.39; C   _2  0.39; C       0.28; N       0.48; O   _1 -0.86; O   _2 -0.86; H   _1 -0.43; 
@             H   _2 -0.43; H   _1 -0.45; H   _2 -0.45; H      -0.44; 
 -----------------------------------------------------------------------------
@  7  -434.230912398       6.82D-03  -3.92D-05    18  14
      Virial theorem: -V/T =      2.002484
@    MULPOP   C       1.83; C   _1  0.28; C   _2  0.28; C   _1  0.39; C   _2  0.39; C       0.28; N       0.48; O   _1 -0.86; O   _2 -0.86; H   _1 -0.43; 
@             H   _2 -0.43; H   _1 -0.45; H   _2 -0.45; H      -0.44; 
 -----------------------------------------------------------------------------
@  8  -434.230918694       2.39D-03  -6.30D-06    18  14
      Virial theorem: -V/T =      2.002471
@    MULPOP   C       1.84; C   _1  0.27; C   _2  0.27; C   _1  0.39; C   _2  0.39; C       0.28; N       0.48; O   _1 -0.86; O   _2 -0.86; H   _1 -0.43; 
@             H   _2 -0.43; H   _1 -0.45; H   _2 -0.45; H      -0.44; 
 -----------------------------------------------------------------------------
@  9  -434.230919425       7.72D-04  -7.30D-07    18  14
      Virial theorem: -V/T =      2.002467
@    MULPOP   C       1.84; C   _1  0.27; C   _2  0.27; C   _1  0.38; C   _2  0.38; C       0.28; N       0.48; O   _1 -0.86; O   _2 -0.86; H   _1 -0.43; 
@             H   _2 -0.43; H   _1 -0.45; H   _2 -0.45; H      -0.44; 
 -----------------------------------------------------------------------------
@ 10  -434.230919504       2.68D-04  -7.94D-08    18  14
      Virial theorem: -V/T =      2.002469
@    MULPOP   C       1.84; C   _1  0.27; C   _2  0.27; C   _1  0.38; C   _2  0.38; C       0.28; N       0.48; O   _1 -0.86; O   _2 -0.86; H   _1 -0.43; 
@             H   _2 -0.43; H   _1 -0.45; H   _2 -0.45; H      -0.44; 
 -----------------------------------------------------------------------------
@ 11  -434.230919519       1.06D-04  -1.46D-08    18  14
      Virial theorem: -V/T =      2.002469
@    MULPOP   C       1.84; C   _1  0.27; C   _2  0.27; C   _1  0.39; C   _2  0.39; C       0.28; N       0.48; O   _1 -0.86; O   _2 -0.86; H   _1 -0.43; 
@             H   _2 -0.43; H   _1 -0.45; H   _2 -0.45; H      -0.44; 
 -----------------------------------------------------------------------------
@ 12  -434.230919522       4.37D-05  -2.79D-09    18  14
      Virial theorem: -V/T =      2.002469
@    MULPOP   C       1.84; C   _1  0.27; C   _2  0.27; C   _1  0.39; C   _2  0.39; C       0.28; N       0.48; O   _1 -0.86; O   _2 -0.86; H   _1 -0.43; 
@             H   _2 -0.43; H   _1 -0.45; H   _2 -0.45; H      -0.44; 
 -----------------------------------------------------------------------------
@ 13  -434.230919522       2.45D-05  -3.97D-10    18  14
      Virial theorem: -V/T =      2.002469
@    MULPOP   C       1.84; C   _1  0.27; C   _2  0.27; C   _1  0.39; C   _2  0.39; C       0.28; N       0.48; O   _1 -0.86; O   _2 -0.86; H   _1 -0.43; 
@             H   _2 -0.43; H   _1 -0.45; H   _2 -0.45; H      -0.44; 
 -----------------------------------------------------------------------------
@ 14  -434.230919522       8.94D-06  -1.94D-10    18  14

@ *** DIIS converged in  14 iterations !
@     Converged SCF energy, gradient:   -434.230919522197    8.94D-06
    - total time used in SIRFCK :              0.00 seconds


 *** SCF orbital energy analysis ***

 Only the 20 lowest virtual orbital energies printed in each symmetry.

 Number of electrons :   64
 Orbital occupations :   18   14

 Sym       Hartree-Fock orbital energies

1 A     -20.61573736   -15.86358443   -11.32441389   -11.28891082   -11.28391320
        -11.27560687    -1.59837305    -1.20054335    -1.09764292    -0.96692752
         -0.83381119    -0.78065912    -0.70916939    -0.65263570    -0.55502301
         -0.49906062    -0.45438026    -0.36959285     0.02619020     0.04389846
          0.06226955     0.08476347     0.10462541     0.13064939     0.13105805
          0.13481423     0.15059175     0.15636009     0.17275863     0.18051187
          0.18576977     0.21541417     0.25790412     0.28782212     0.29800702
          0.30007136     0.31121590     0.33845941

2 B     -20.61578699   -11.28894716   -11.27570391    -1.39514100    -1.05445013
         -0.86537234    -0.72797068    -0.71271311    -0.65692267    -0.62386203
         -0.53582524    -0.53227441    -0.49480026    -0.37875106     0.02796177
          0.03570557     0.05962684     0.10671101     0.12323882     0.13042440
          0.13371683     0.13882925     0.15244877     0.17298758     0.18341615
          0.18383467     0.19127314     0.21395747     0.24642160     0.26168933
          0.28878681     0.31461286     0.31837423     0.33416252

    E(LUMO) :     0.02619020 au (symmetry 1)
  - E(HOMO) :    -0.36959285 au (symmetry 1)
  ------------------------------------------
    gap     :     0.39578304 au

 --- Writing SIRIFC interface file

 CPU and wall time for SCF :     123.062     123.092


                       .-----------------------------------.
                       | --- Final results from SIRIUS --- |
                       `-----------------------------------'


@    Spin multiplicity:           1
@    Spatial symmetry:            1 ( irrep  A   in C2  )
@    Total charge of molecule:    0

@    Final HF energy:            -434.230919522197                 
@    Nuclear repulsion:           410.144552036057
@    Electronic energy:          -844.375471558255

@    Final gradient norm:           0.000008936169

 
     Date and time (Linux)  : Fri Jun 14 17:39:30 2019
     Host name              : Lab2-333-NPs                            

File label for MO orbitals:  14Jun19   FOCKDIIS

 (Only coefficients > 0.0100 are printed.)

 Molecular orbitals for symmetry species 1  (A  )
 ------------------------------------------------

    Orbital         9       10       11       12       13       14       15
   1 C   :1s    -0.0155   0.0031   0.0080  -0.0006  -0.0016  -0.0029  -0.0018
   2 C   :1s     0.4075  -0.0507  -0.2978   0.1333   0.0079   0.2779   0.0909
   3 C   :1s     0.2093   0.1326   0.0580   0.3033   0.1467   0.1351   0.1652
   5 C   :1s    -0.2851  -0.3125  -0.0174   0.3234   1.0451  -0.7041  -0.1877
   6 C   :2pz    0.1154   0.2973   0.0880  -0.2900  -0.0926  -0.1328   0.0161
   7 C   :2pz   -0.1629  -0.1040  -0.0241   0.0703  -0.0522   0.0037  -0.0815
   9 C   :2pz   -0.1055   0.0248   0.0213   0.0530  -0.1285   0.0935  -0.1281
  11 C   :3d0    0.0150   0.0268   0.0089  -0.0150  -0.0275  -0.0003  -0.0212
  12 C   :3d2+   0.0069  -0.0128  -0.0101   0.0057   0.0144  -0.0015   0.0110
  14 C   :3d0   -0.0802  -0.1123  -0.0386  -0.0286  -0.0165  -0.0179  -0.0460
  15 C   :3d2+   0.0458   0.0505   0.0041   0.0098   0.0125   0.0002   0.0251
  16 C   :1s    -0.0013   0.0106  -0.0027  -0.0003  -0.0047   0.0013  -0.0004
  17 C   :1s     0.0604  -0.2964   0.1038  -0.0116   0.1611  -0.1330  -0.0602
  18 C   :1s     0.0215  -0.0772   0.0691   0.0679  -0.0162  -0.0148  -0.0634
  20 C   :1s    -0.0355   0.2760   0.0367  -0.1514  -0.8679   0.8554   0.0321
  21 C   :2px   -0.0597   0.0309   0.1778  -0.2300   0.1561  -0.2399   0.0931
  23 C   :2pz    0.1281   0.0199  -0.1804   0.0122   0.2273   0.0166   0.3363
  24 C   :2px    0.0794   0.0322  -0.0859   0.1100  -0.0555   0.0732  -0.0037
  26 C   :2pz   -0.2366  -0.0130  -0.0563  -0.1740  -0.2293   0.0339  -0.1711
  30 C   :2px   -0.0474  -0.0170  -0.0126   0.0536   0.1453  -0.1081  -0.0599
  32 C   :2pz    0.0846  -0.0292  -0.0164  -0.0237   0.0746  -0.1320   0.0635
  35 C   :3d0   -0.0073   0.0029   0.0140  -0.0094  -0.0132  -0.0037  -0.0113
  36 C   :3d1+  -0.0122  -0.0001   0.0038  -0.0002   0.0056  -0.0246   0.0039
  40 C   :3d0    0.0282  -0.0471   0.0129   0.0422   0.0631  -0.0028   0.0382
  41 C   :3d1+   0.0454   0.0604   0.0014   0.0608  -0.0277   0.0852   0.0036
  42 C   :3d2+  -0.0237   0.0226  -0.0014  -0.0155  -0.0354   0.0078  -0.0207
  43 C   :1s     0.0106  -0.0024  -0.0048   0.0051   0.0028  -0.0024  -0.0007
  44 C   :1s    -0.2895   0.0438   0.1968  -0.1141  -0.1648   0.1208   0.0387
  45 C   :1s    -0.0147   0.0021  -0.0407  -0.1409  -0.1758  -0.0358  -0.0605
  47 C   :1s     0.0146  -0.1486  -0.2137   0.2650   0.8437  -0.9372  -0.1786
  48 C   :2px    0.0874  -0.0870   0.1630  -0.1773   0.1103   0.3133  -0.0771
  50 C   :2pz    0.0481  -0.1752   0.1396   0.0308  -0.1004  -0.1567  -0.3392
  51 C   :2px   -0.0642   0.0761  -0.1262   0.1227  -0.0063  -0.0985  -0.0392
  53 C   :2pz   -0.1708   0.1523  -0.1665  -0.1312  -0.0490   0.0748  -0.0381
  57 C   :2px    0.0583  -0.0064   0.0536  -0.0667  -0.1565   0.1156   0.0796
  59 C   :2pz    0.0479  -0.0543   0.0192   0.0029   0.0773  -0.1194   0.0146
  62 C   :3d0    0.0020  -0.0122   0.0074  -0.0016   0.0067  -0.0024  -0.0256
  63 C   :3d1+  -0.0104   0.0074  -0.0051   0.0002   0.0111  -0.0232  -0.0003
  64 C   :3d2+  -0.0092   0.0082  -0.0021  -0.0009  -0.0051   0.0009   0.0143
  67 C   :3d0   -0.0467   0.0239  -0.0220  -0.0376  -0.0397   0.0328   0.0236
  68 C   :3d1+   0.0219  -0.0020   0.0564  -0.0132  -0.0332   0.0957   0.0223
  69 C   :3d2+   0.0290  -0.0134   0.0112   0.0191   0.0226  -0.0236  -0.0110
  70 C   :1s     0.0160  -0.0130   0.0070  -0.0005  -0.0043   0.0021   0.0014
  71 C   :1s    -0.4232   0.3933  -0.2930   0.0820   0.1716  -0.1869   0.0405
  72 C   :1s    -0.1050   0.0485  -0.1978  -0.0146  -0.0519  -0.0672  -0.0219
  74 C   :1s     0.2155  -0.0213   0.3733  -0.3752  -0.9069   0.7325   0.4073
  75 C   :2pz   -0.0710  -0.0185   0.0680   0.0737  -0.4131  -0.1825   0.4649
  76 C   :2pz   -0.0815   0.0920  -0.1142  -0.0077   0.1683   0.0465  -0.1534
  78 C   :2pz    0.0070   0.0313   0.0442  -0.0775  -0.1605   0.1706   0.0189
  80 C   :3d0    0.0002  -0.0030  -0.0037   0.0045   0.0114  -0.0126  -0.0327
  81 C   :3d2+  -0.0128   0.0109  -0.0024  -0.0016  -0.0064   0.0075   0.0183
  83 C   :3d0    0.0246  -0.0317   0.0630  -0.0109  -0.0884   0.0320   0.0883
  84 C   :3d2+  -0.0155   0.0208  -0.0327   0.0114   0.0513  -0.0179  -0.0530
  86 N   :1s     0.2320   0.4034   0.3462   0.1476  -0.0030  -0.0591  -0.0617
  87 N   :1s     0.1315   0.1387   0.0337  -0.0530   0.0106   0.0048   0.0471
  89 N   :1s     0.2256   0.1427   0.0432  -0.1059  -0.1434   0.1091   0.1706
  90 N   :2pz   -0.3066  -0.2516   0.1648   0.4240   0.2387   0.0563   0.0815
  91 N   :2pz    0.0445   0.0322  -0.0344  -0.0716  -0.0387  -0.0287  -0.0227
  93 N   :2pz   -0.0054  -0.0170  -0.0015   0.0261   0.0801   0.0086   0.0359
  95 N   :3d0    0.0118   0.0063  -0.0006   0.0056   0.0047   0.0093   0.0138
  98 N   :3d0    0.0137  -0.0076  -0.0313  -0.0358  -0.0176  -0.0012  -0.0046
  99 N   :3d2+   0.0008   0.0177   0.0222   0.0139   0.0040  -0.0011   0.0005
 101 O   :1s    -0.2093  -0.2687  -0.2687  -0.1922  -0.0740   0.0166  -0.0145
 102 O   :1s    -0.0278  -0.0660  -0.0771  -0.0514  -0.0251   0.0110  -0.0064
 104 O   :1s    -0.0512  -0.0409  -0.0561  -0.0293  -0.0239  -0.0045  -0.0513
 105 O   :2px    0.0091  -0.0721  -0.2421  -0.3112  -0.1437  -0.0412  -0.0742
 107 O   :2pz   -0.0649  -0.1037  -0.0544   0.0809   0.0543   0.1170   0.1489
 108 O   :2px    0.0170   0.0301   0.0317   0.0196   0.0074  -0.0063  -0.0012
 110 O   :2pz    0.0157   0.0301   0.0299   0.0181   0.0096  -0.0001   0.0085
 121 O   :3d2+  -0.0017   0.0014   0.0080   0.0104   0.0048   0.0010   0.0018
 124 O   :3d0    0.0032   0.0005  -0.0069  -0.0139  -0.0054  -0.0049  -0.0044
 126 O   :3d2+  -0.0054  -0.0022   0.0061   0.0108   0.0046   0.0023   0.0022
 127 H   :1s     0.0313  -0.1125   0.0999  -0.1725   0.3035  -0.2721   0.2157
 128 H   :1s    -0.0179  -0.0734   0.0055   0.0749   0.1005  -0.0928   0.0188
 129 H   :1s    -0.0029   0.0113  -0.0002  -0.0175  -0.0350   0.0393   0.0132
 130 H   :2px   -0.0042   0.0058  -0.0033   0.0068  -0.0121   0.0079  -0.0077
 133 H   :2px    0.0081   0.0195  -0.0157  -0.0003  -0.0402   0.0440  -0.0155
 135 H   :2pz   -0.0105   0.0140   0.0030  -0.0208  -0.0384   0.0071  -0.0272
 136 H   :1s    -0.0907   0.0288   0.1549  -0.2047   0.0340   0.4108   0.1425
 137 H   :1s     0.0286   0.0183  -0.0001  -0.0503  -0.1615   0.1183   0.0533
 138 H   :1s    -0.0019  -0.0071  -0.0102   0.0127   0.0531  -0.0416  -0.0062
 139 H   :2px    0.0076  -0.0030  -0.0063   0.0078  -0.0019  -0.0127  -0.0070
 142 H   :2px   -0.0084  -0.0006  -0.0188   0.0238   0.0304  -0.0532  -0.0183
 144 H   :2pz   -0.0105   0.0132  -0.0091  -0.0177  -0.0194   0.0270   0.0265
 145 H   :1s    -0.1347   0.1954  -0.2046  -0.0183   0.4702   0.0616  -0.4950
 146 H   :1s    -0.0172  -0.0027  -0.0683   0.0670   0.0838  -0.1167  -0.1405
 147 H   :1s     0.0151   0.0030   0.0197  -0.0364  -0.0394   0.0438  -0.0127
 148 H   :2pz   -0.0103   0.0135  -0.0109  -0.0006   0.0198   0.0022  -0.0136
 149 H   :2pz   -0.0132   0.0145  -0.0286   0.0177   0.0573  -0.0249  -0.0734

    Orbital        16       17       18       19       20       21       22
   2 C   :1s     0.0668   0.0000  -0.0000  -0.0150  -0.0239  -0.0067  -0.0000
   3 C   :1s     0.1328  -0.0000   0.0000   0.8601   0.6836   0.8738  -0.0000
   5 C   :1s     0.2973   0.0000  -0.0000   0.8264   5.7828  25.3698  -0.0001
   6 C   :2pz    0.3390  -0.0000   0.0000  -0.0024   0.0215   0.0089   0.0000
   7 C   :2pz   -0.2085   0.0000  -0.0000  -0.1312   0.1599   0.3888   0.0000
   9 C   :2pz   -0.1331   0.0000   0.0000  -0.1292  -3.0456  -4.8045   0.0001
  10 C   :3d2-   0.0000   0.0047   0.0326  -0.0000   0.0000   0.0000  -0.0407
  11 C   :3d0    0.0225  -0.0000   0.0000   0.0006   0.0016   0.0045  -0.0000
  13 C   :3d2-   0.0000   0.0426   0.0126  -0.0000  -0.0000  -0.0000  -0.0333
  14 C   :3d0   -0.0326   0.0000   0.0000  -0.2479  -0.2288  -0.3427   0.0000
  15 C   :3d2+   0.0217  -0.0000   0.0000   0.1954   0.1974   0.2725  -0.0000
  17 C   :1s     0.0084   0.0000  -0.0000   0.0068   0.0596   0.0530   0.0000
  18 C   :1s    -0.0880  -0.0000  -0.0000   0.2478  -0.2287  -0.5691  -0.0000
  20 C   :1s    -0.3814  -0.0000   0.0000   3.5432  -5.1977 -26.2196   0.0000
  21 C   :2px    0.0906   0.0000   0.0000   0.0108   0.0301   0.0124   0.0000
  22 C   :2py   -0.0000   0.0280   0.4160   0.0000   0.0000   0.0000  -0.3687
  23 C   :2pz   -0.1145   0.0000  -0.0000   0.0072   0.0256   0.0045   0.0000
  24 C   :2px    0.0466  -0.0000   0.0000   0.2708   0.1614  -0.5010  -0.0000
  25 C   :2py   -0.0000  -0.0323   0.0085   0.0000   0.0000  -0.0000  -0.1088
  26 C   :2pz   -0.0485   0.0000   0.0000  -0.5550  -0.0927  -0.4814   0.0000
  30 C   :2px    0.0454   0.0000  -0.0000  -0.3054   1.4967   6.7126   0.0000
  31 C   :2py   -0.0000  -0.0050   0.0206   0.0000   0.0000  -0.0000  -1.0109
  32 C   :2pz    0.0774   0.0000  -0.0000  -1.1237   3.2273   5.5052   0.0000
  34 C   :3d1-  -0.0000  -0.0005  -0.0194   0.0000   0.0000   0.0000  -0.0218
  38 C   :3d2-   0.0000   0.0124  -0.0002  -0.0000  -0.0000  -0.0000  -0.0128
  39 C   :3d1-   0.0000  -0.0004  -0.0103  -0.0000   0.0000  -0.0000  -0.0136
  40 C   :3d0    0.0229  -0.0000  -0.0000   0.0825  -0.1086  -0.0869  -0.0000
  41 C   :3d1+  -0.0138  -0.0000   0.0000   0.1702   0.1951   0.4462   0.0000
  42 C   :3d2+  -0.0161   0.0000  -0.0000   0.0066   0.0430  -0.0096   0.0000
  44 C   :1s     0.0139  -0.0000   0.0000   0.0433   0.0346  -0.0506  -0.0000
  45 C   :1s    -0.0466   0.0000   0.0000  -0.0632  -0.2075   0.4586   0.0000
  47 C   :1s     0.3784   0.0000  -0.0000  -1.9343   0.5759  30.5948   0.0001
  48 C   :2px   -0.0259  -0.0000   0.0000   0.0444   0.0003  -0.0257   0.0000
  49 C   :2py   -0.0000   0.0194   0.4198  -0.0000  -0.0000  -0.0000   0.3472
  50 C   :2pz    0.1215  -0.0000   0.0000  -0.0226  -0.0107   0.0189   0.0000
  51 C   :2px    0.0093   0.0000  -0.0000   0.0833   0.3737   0.5821   0.0000
  52 C   :2py    0.0000   0.0082   0.0092   0.0000  -0.0000  -0.0000   0.0928
  53 C   :2pz   -0.0369   0.0000   0.0000  -0.6030   0.4256  -0.6295   0.0000
  57 C   :2px   -0.0396  -0.0000   0.0000   0.8210   2.2157  -8.8926  -0.0001
  58 C   :2py   -0.0000   0.0037   0.0287   0.0000  -0.0000  -0.0000   1.1098
  59 C   :2pz    0.0463   0.0000  -0.0000  -1.3213   0.7969   6.1586   0.0000
  61 C   :3d1-  -0.0000   0.0015   0.0191   0.0000   0.0000   0.0000  -0.0218
  66 C   :3d1-   0.0000   0.0039  -0.0007   0.0000  -0.0000  -0.0000  -0.0163
  67 C   :3d0   -0.0119   0.0000   0.0000  -0.0424  -0.1062   0.2417   0.0000
  68 C   :3d1+  -0.0313  -0.0000   0.0000   0.0669  -0.1068   0.4704   0.0000
  69 C   :3d2+   0.0078  -0.0000   0.0000   0.0642   0.0740  -0.0210  -0.0000
  71 C   :1s     0.0177   0.0000   0.0000   0.0511  -0.0708   0.0750  -0.0000
  72 C   :1s     0.0220   0.0000  -0.0000  -0.1307   0.5849  -0.8773   0.0000
  74 C   :1s    -0.3065  -0.0000   0.0000   1.9336   7.8134 -28.7263  -0.0002
  75 C   :2pz   -0.0468   0.0000  -0.0000  -0.0687   0.0494  -0.0163  -0.0000
  76 C   :2pz    0.0222   0.0000  -0.0000  -0.3513   0.0909   0.5902   0.0000
  78 C   :2pz   -0.0705  -0.0000   0.0000  -0.7705   4.4674 -11.3195  -0.0001
  79 C   :3d2-  -0.0000   0.0013   0.0317  -0.0000  -0.0000  -0.0000   0.0376
  82 C   :3d2-   0.0000  -0.0015  -0.0004  -0.0000  -0.0000  -0.0000   0.0244
  83 C   :3d0   -0.0214  -0.0000   0.0000   0.1865  -0.3145   0.4781   0.0000
  84 C   :3d2+   0.0136   0.0000  -0.0000  -0.0781   0.2952  -0.3461  -0.0000
  86 N   :1s     0.0215  -0.0000   0.0000  -0.0048  -0.0183  -0.0021  -0.0000
  87 N   :1s     0.0740  -0.0000  -0.0000   0.0588   0.1725   0.1408  -0.0000
  89 N   :1s     0.0630  -0.0000   0.0000   0.0314   0.6056  -1.5349  -0.0001
  90 N   :2pz   -0.2919   0.0000  -0.0000   0.0056  -0.0087  -0.0246   0.0000
  91 N   :2pz   -0.0496   0.0000   0.0000  -0.0324   0.0929   0.0687   0.0000
  93 N   :2pz   -0.0077  -0.0000  -0.0000   0.4998   0.8616   1.2058  -0.0000
  94 N   :3d2-  -0.0000   0.0568  -0.0031  -0.0000   0.0000   0.0000   0.0007
  95 N   :3d0    0.0497  -0.0000   0.0000   0.0000   0.0008   0.0008  -0.0000
  96 N   :3d2+  -0.0358  -0.0000  -0.0000   0.0018   0.0052   0.0049  -0.0000
  97 N   :3d2-  -0.0000  -0.0037  -0.0028   0.0000   0.0000   0.0000  -0.0134
  98 N   :3d0    0.0185   0.0000  -0.0000  -0.0029  -0.0317  -0.0253   0.0000
  99 N   :3d2+  -0.0243  -0.0000   0.0000  -0.0298   0.0207   0.0072  -0.0000
 101 O   :1s     0.0101   0.0000  -0.0000   0.0067   0.0360   0.0415   0.0000
 102 O   :1s     0.0476   0.0000  -0.0000   0.0347  -0.0290   0.0045   0.0000
 104 O   :1s     0.0152   0.0000  -0.0000  -0.0288  -0.4789  -0.2627   0.0000
 105 O   :2px   -0.0707  -0.0000   0.0000   0.0001  -0.0009   0.0015   0.0000
 106 O   :2py    0.0000   0.6434  -0.0505  -0.0000   0.0000   0.0000   0.0496
 107 O   :2pz    0.5842  -0.0000   0.0000  -0.0060   0.0018   0.0108  -0.0000
 108 O   :2px   -0.0317  -0.0000   0.0000  -0.0201   0.0388   0.0198  -0.0000
 109 O   :2py   -0.0000   0.0526  -0.0032  -0.0000  -0.0000  -0.0000   0.0136
 110 O   :2pz    0.0172  -0.0000   0.0000  -0.0080   0.0194   0.0121  -0.0000
 114 O   :2px   -0.0147  -0.0000   0.0000   0.0874   0.1496   0.1136  -0.0000
 115 O   :2py    0.0000   0.0639  -0.0069  -0.0000   0.0000   0.0000   0.0589
 116 O   :2pz    0.0397   0.0000   0.0000  -0.1314   0.0338   0.0583   0.0000
 117 O   :3d2-  -0.0000  -0.0117   0.0010  -0.0000   0.0000   0.0000  -0.0012
 122 O   :3d2-   0.0000  -0.0247   0.0010   0.0000  -0.0000   0.0000  -0.0042
 123 O   :3d1-  -0.0000  -0.0182   0.0004   0.0000  -0.0000   0.0000  -0.0004
 124 O   :3d0   -0.0114   0.0000  -0.0000   0.0049   0.0066   0.0017   0.0000
 125 O   :3d1+  -0.0095   0.0000  -0.0000   0.0028  -0.0115  -0.0085   0.0000
 127 H   :1s    -0.0010   0.0000   0.0000  -0.0080   0.0108   0.0136  -0.0000
 128 H   :1s     0.0417   0.0000  -0.0000  -0.5203  -0.4357   0.4578  -0.0000
 129 H   :1s    -0.0100  -0.0000   0.0000   0.3848  -3.0507  -6.0416  -0.0001
 131 H   :2py   -0.0000   0.0013   0.0103   0.0000   0.0000   0.0000  -0.0139
 133 H   :2px   -0.0069  -0.0000   0.0000   0.1146   0.0372  -0.1293   0.0000
 135 H   :2pz   -0.0080   0.0000   0.0000   0.0428  -0.0115  -0.1577   0.0000
 136 H   :1s    -0.0924  -0.0000  -0.0000   0.0064   0.0022  -0.0077  -0.0000
 137 H   :1s    -0.0598  -0.0000   0.0000  -0.5144  -0.4641  -0.5710   0.0000
 138 H   :1s     0.0118   0.0000  -0.0000  -1.8746  -1.5780   9.0987   0.0001
 140 H   :2py   -0.0000   0.0006   0.0107  -0.0000  -0.0000  -0.0000   0.0151
 142 H   :2px    0.0182   0.0000  -0.0000   0.0978   0.0204   0.2208   0.0000
 144 H   :2pz   -0.0085   0.0000   0.0000  -0.0333  -0.0942  -0.1186   0.0000
 145 H   :1s     0.0731  -0.0000   0.0000   0.0089  -0.0147   0.0124   0.0000
 146 H   :1s     0.0578   0.0000  -0.0000  -0.9943   0.4195   0.1108   0.0000
 147 H   :1s    -0.0124  -0.0000   0.0000  -2.1402   5.7776  -9.2656  -0.0001
 149 H   :2pz    0.0207   0.0000  -0.0000  -0.1860  -0.0227   0.1513   0.0000

    Orbital        23       24       25       26       27       28
   1 C   :1s     0.0245   0.0161   0.0000  -0.0084   0.0295   0.0052
   2 C   :1s     0.0530   0.0245  -0.0000  -0.0657   0.1684   0.0353
   3 C   :1s    -2.7579   0.5199   0.0001  -0.0693  -2.1990  -2.5080
   5 C   :1s   -24.6461  -6.9152  -0.0041  -5.5344  -8.7101   2.4101
   6 C   :2pz    0.0350  -0.0395  -0.0000   0.0042   0.0077  -0.0568
   7 C   :2pz    0.5742  -0.0963  -0.0001  -0.4391  -0.2887   0.9804
   9 C   :2pz   11.4765  -5.3008   0.0002   5.5167  -2.3275   6.8785
  11 C   :3d0   -0.0142   0.0032   0.0000  -0.0029  -0.0156   0.0042
  12 C   :3d2+  -0.0065   0.0081   0.0000   0.0050   0.0174  -0.0041
  13 C   :3d2-   0.0000   0.0000  -0.1085   0.0000   0.0000   0.0000
  14 C   :3d0    0.7450   1.1686   0.0001  -0.0890   0.6593   0.5091
  15 C   :3d2+  -0.5995  -0.8841  -0.0001   0.1744  -0.5461  -0.0791
  16 C   :1s    -0.0075  -0.0055  -0.0000  -0.0129   0.0172   0.0075
  17 C   :1s    -0.0085  -0.0141  -0.0000  -0.0126   0.1681   0.0407
  18 C   :1s     0.2043   1.7079   0.0002   0.0244  -0.8514  -0.7764
  20 C   :1s    15.2716  -5.6373   0.0044  25.6070  -6.0895  25.1905
  21 C   :2px    0.0465  -0.0301  -0.0000   0.0135   0.0298  -0.0259
  22 C   :2py    0.0000   0.0000  -0.0499   0.0000  -0.0000  -0.0000
  23 C   :2pz    0.0205  -0.0181   0.0000   0.0284   0.0295  -0.0218
  24 C   :2px   -0.2078  -0.0857   0.0001   0.4811  -0.7418   0.1235
  26 C   :2pz    2.1490  -0.2159   0.0000  -0.1434   1.1481   2.0223
  30 C   :2px   -3.3774  -3.3738  -0.0009  -0.2943   0.4538   1.1557
  31 C   :2py    0.0000  -0.0001   0.6062  -0.0000  -0.0000   0.0000
  32 C   :2pz   -1.6855   6.4792  -0.0007 -10.0547   2.4517  -9.7329
  35 C   :3d0   -0.0068   0.0063   0.0000   0.0018   0.0118  -0.0073
  37 C   :3d2+  -0.0111   0.0114   0.0000  -0.0041   0.0116   0.0006
  38 C   :3d2-   0.0000   0.0000  -0.0273   0.0000   0.0000   0.0000
  39 C   :3d1-   0.0000   0.0000   0.0457  -0.0000   0.0000  -0.0000
  40 C   :3d0   -0.1327   0.7035   0.0001   0.1008   0.0172  -0.6048
  41 C   :3d1+  -0.4762  -0.3014  -0.0000   0.0065  -0.5412  -0.4289
  42 C   :3d2+   0.1627  -0.4224  -0.0000   0.1243  -0.1058   0.3876
  43 C   :1s    -0.0123   0.0045   0.0000  -0.0032   0.0076   0.0109
  44 C   :1s    -0.0386   0.0155  -0.0000  -0.0454   0.1608   0.0021
  45 C   :1s     1.1122  -0.6877  -0.0000   0.2570   0.2372   0.2220
  47 C   :1s    -0.2878   6.4548  -0.0035 -12.7543  13.1428 -40.1830
  48 C   :2px    0.0368  -0.0571  -0.0000  -0.0427   0.0759   0.0130
  49 C   :2py   -0.0000   0.0000  -0.1501   0.0000   0.0000   0.0000
  50 C   :2pz   -0.0203   0.0248   0.0000   0.0203  -0.0493   0.0125
  51 C   :2px   -0.1362  -0.2935  -0.0001  -0.2174  -0.3656   0.0056
  52 C   :2py   -0.0000   0.0000  -0.0729   0.0000  -0.0000  -0.0000
  53 C   :2pz    1.1968  -1.1583  -0.0001  -0.7451   0.8295   2.6369
  57 C   :2px   -2.8032   4.2027   0.0007  -4.6368  -6.2949   5.1073
  58 C   :2py   -0.0000  -0.0001   0.8971  -0.0001   0.0000   0.0000
  59 C   :2pz    0.1434   3.5667  -0.0010 -10.0438   1.2548  -9.7739
  62 C   :3d0    0.0023   0.0002  -0.0000  -0.0082   0.0158   0.0113
  64 C   :3d2+  -0.0091   0.0106   0.0000   0.0040   0.0100   0.0012
  66 C   :3d1-  -0.0000   0.0000  -0.0300   0.0000   0.0000  -0.0000
  67 C   :3d0    0.4378  -0.3560   0.0000   0.3940   0.3975   0.2252
  68 C   :3d1+  -0.1189  -0.0317   0.0000   0.0501  -0.0638  -0.5607
  69 C   :3d2+  -0.1668   0.1899  -0.0000  -0.2583  -0.3185  -0.3299
  70 C   :1s     0.0039   0.0012   0.0000   0.0089   0.0188  -0.0194
  71 C   :1s     0.0138   0.0033  -0.0000  -0.0818   0.1284   0.0284
  72 C   :1s     0.6732  -0.7781  -0.0001   0.0569   0.0395   3.0211
  74 C   :1s    -6.0614   8.6943   0.0020 -19.2660 -23.9105  27.9270
  75 C   :2pz   -0.0487   0.0667   0.0000   0.1110  -0.0729  -0.1244
  76 C   :2pz    0.3616  -0.7458  -0.0001   0.3056   1.2651   0.7521
  78 C   :2pz   -1.3217  -2.7341   0.0003  -2.9970  -4.7869  17.9862
  80 C   :3d0   -0.0104   0.0096   0.0000  -0.0004  -0.0049   0.0100
  81 C   :3d2+  -0.0042   0.0074   0.0000   0.0002   0.0264   0.0019
  82 C   :3d2-  -0.0000   0.0000  -0.0805   0.0000   0.0000   0.0000
  83 C   :3d0   -0.0362   0.1538   0.0001   0.5129  -0.0463  -0.8376
  84 C   :3d2+  -0.0453  -0.0241  -0.0001  -0.5809  -0.2163   0.5332
  85 N   :1s     0.0008  -0.0120  -0.0000   0.0004  -0.0095  -0.0006
  86 N   :1s    -0.0485  -0.0098   0.0000   0.0319  -0.0267   0.0407
  87 N   :1s    -0.3631   0.3451   0.0001   0.1691   0.0868   0.2156
  89 N   :1s    -5.7004   5.4263   0.0014   2.8337   7.2910   1.9370
  90 N   :2pz    0.0375  -0.0062  -0.0000  -0.0212   0.0255  -0.0203
  91 N   :2pz    0.1473   0.7656   0.0001  -0.0649  -0.0208   0.5401
  93 N   :2pz   -2.5450   3.4117   0.0002   0.1641  -1.6706   1.8249
  96 N   :3d2+   0.0001   0.0070   0.0000   0.0050   0.0046   0.0124
  97 N   :3d2-  -0.0000  -0.0000   0.0225  -0.0000  -0.0000  -0.0000
  98 N   :3d0    0.0267  -0.1283  -0.0000   0.0859   0.0557   0.0372
  99 N   :3d2+  -0.0151   0.2346   0.0000  -0.0579   0.1128   0.0573
 101 O   :1s    -0.0151  -0.0377  -0.0000  -0.0084   0.0117  -0.0114
 102 O   :1s    -0.0129  -0.3684  -0.0000   0.0561  -0.0886  -0.1545
 104 O   :1s     1.3543  -3.1568  -0.0004  -0.7079  -1.2366  -2.1681
 105 O   :2px    0.0021   0.0062   0.0000   0.0015  -0.0118   0.0073
 106 O   :2py   -0.0000   0.0000  -0.0333   0.0000   0.0000   0.0000
 107 O   :2pz   -0.0241  -0.0330  -0.0000  -0.0147  -0.0131  -0.0521
 108 O   :2px    0.0203   0.2848   0.0000  -0.0002   0.0770   0.1979
 109 O   :2py    0.0000   0.0000  -0.0237   0.0000   0.0000   0.0000
 110 O   :2pz   -0.0358   0.1647   0.0000  -0.0149   0.0394   0.0526
 114 O   :2px   -0.6737   0.8557   0.0001   0.4541   0.2689   0.8396
 116 O   :2pz    0.1768  -0.0889  -0.0000  -0.1003   0.5727   0.0496
 124 O   :3d0    0.0022   0.0060   0.0000   0.0137  -0.0149   0.0279
 125 O   :3d1+  -0.0006  -0.0528  -0.0000   0.0062  -0.0101  -0.0300
 126 O   :3d2+  -0.0106  -0.0623  -0.0000  -0.0102  -0.0130  -0.0587
 127 H   :1s    -0.0434   0.0473   0.0000   0.0279   0.0324  -0.0038
 128 H   :1s    -0.9892   1.4050  -0.0002  -1.2410   1.9861  -1.3817
 129 H   :1s    -0.5693  -1.3940   0.0005   3.9852   0.7047   1.0803
 130 H   :2px   -0.0022   0.0107   0.0000  -0.0025  -0.0061  -0.0008
 133 H   :2px    0.2358  -0.1501   0.0000   0.2620  -0.4291   0.1253
 134 H   :2py    0.0000  -0.0000  -0.0450   0.0000  -0.0000   0.0000
 135 H   :2pz    0.2184  -0.3208   0.0000   0.1844  -0.1951   0.3228
 136 H   :1s    -0.0153   0.0400   0.0000  -0.0064   0.0358   0.0019
 137 H   :1s     0.4990  -0.8093   0.0002   0.5166   1.5523   1.7561
 138 H   :1s     3.4355   0.5166  -0.0004  -1.2270   4.7602  -5.8463
 142 H   :2px   -0.0047   0.0948  -0.0000   0.0894  -0.2169  -0.3284
 143 H   :2py   -0.0000   0.0000  -0.0756   0.0000   0.0000   0.0000
 144 H   :2pz    0.0849  -0.1098   0.0000   0.2797   0.3103   0.2909
 145 H   :1s    -0.0183   0.0332  -0.0000  -0.0612   0.0180   0.0308
 146 H   :1s     0.3612  -1.2196  -0.0003  -0.3572   2.5096   1.8356
 147 H   :1s    -2.7309  -1.1859  -0.0003  -6.7286  -2.8486   9.6840
 148 H   :2pz    0.0052  -0.0061  -0.0000  -0.0062   0.0118   0.0039
 149 H   :2pz    0.0507  -0.2035  -0.0001  -0.0307   0.6329   0.1654

 Molecular orbitals for symmetry species 2  (B  )
 ------------------------------------------------

    Orbital         5        6        7        8        9       10       11
   1 C   :2px    0.1928   0.3394  -0.1247  -0.0000   0.4096  -0.1276  -0.0000
   2 C   :2py   -0.0000  -0.0000   0.0000   0.1699  -0.0000   0.0000   0.3518
   3 C   :2px   -0.5591  -0.4600  -0.0786  -0.0000  -0.3345   0.0733   0.0000
   4 C   :2py    0.0000   0.0000   0.0000  -0.0268   0.0000  -0.0000  -0.0165
   7 C   :2px    0.0273   0.0947  -0.0307   0.0000   0.0368   0.2165  -0.0000
   8 C   :2py    0.0000   0.0000  -0.0000  -0.0311   0.0000  -0.0000  -0.0187
   9 C   :3d1-   0.0000   0.0000  -0.0000   0.0138   0.0000  -0.0000  -0.0142
  10 C   :3d1+  -0.0198  -0.0149  -0.0077   0.0000  -0.0139   0.0214   0.0000
  11 C   :3d1-   0.0000   0.0000  -0.0000  -0.0809  -0.0000   0.0000  -0.0202
  12 C   :3d1+   0.1057   0.0217   0.2341   0.0000   0.1203  -0.0556  -0.0000
  13 C   :1s    -0.0161  -0.0081  -0.0032  -0.0000  -0.0006   0.0005  -0.0000
  14 C   :1s     0.4249   0.3253   0.0622   0.0000  -0.0054  -0.0660  -0.0000
  15 C   :1s     0.1476   0.0813   0.3170   0.0000   0.1200  -0.0893  -0.0000
  17 C   :1s    -0.1562  -0.3342  -0.1874   0.0000   0.0555  -0.2228   0.0000
  18 C   :2px    0.0021  -0.0250   0.0854   0.0000  -0.2138   0.3024   0.0000
  19 C   :2py    0.0000   0.0000   0.0000   0.0631   0.0000   0.0000   0.3171
  20 C   :2pz   -0.0927   0.1848  -0.0756  -0.0000   0.3268   0.2598  -0.0000
  21 C   :2px   -0.2592  -0.1182  -0.2078  -0.0000  -0.0981  -0.0331   0.0000
  22 C   :2py    0.0000   0.0000   0.0000  -0.0440   0.0000   0.0000  -0.0386
  23 C   :2pz    0.2425   0.0547  -0.0733   0.0000   0.0560  -0.1061  -0.0000
  27 C   :2px   -0.0199  -0.0093   0.0140   0.0000  -0.0276   0.0241  -0.0000
  28 C   :2py   -0.0000  -0.0000   0.0000   0.0182   0.0000  -0.0000   0.0169
  29 C   :2pz    0.0209   0.0718   0.0761  -0.0000   0.0110  -0.0731   0.0000
  30 C   :3d2-  -0.0000  -0.0000   0.0000  -0.0061  -0.0000   0.0000  -0.0152
  32 C   :3d0    0.0153  -0.0037   0.0027   0.0000  -0.0070  -0.0117  -0.0000
  35 C   :3d2-  -0.0000  -0.0000  -0.0000   0.0279  -0.0000  -0.0000   0.0095
  36 C   :3d1-  -0.0000   0.0000  -0.0000   0.0236   0.0000  -0.0000   0.0039
  37 C   :3d0   -0.0547   0.0117  -0.0448  -0.0000  -0.0474   0.0591   0.0000
  38 C   :3d1+  -0.0921  -0.1080   0.0192  -0.0000   0.0014  -0.0540  -0.0000
  39 C   :3d2+   0.0321  -0.0046   0.0242   0.0000   0.0252  -0.0344  -0.0000
  40 C   :1s    -0.0162   0.0093   0.0016   0.0000   0.0002   0.0004   0.0000
  41 C   :1s     0.4047  -0.3492  -0.0360  -0.0000   0.0054  -0.0649   0.0000
  42 C   :1s     0.1655  -0.0910  -0.0295   0.0000   0.0348  -0.0633   0.0000
  44 C   :1s    -0.0933   0.3140   0.1608  -0.0000  -0.0606  -0.0554  -0.0000
  45 C   :2px    0.0060   0.0103   0.0439   0.0000  -0.2025   0.2688  -0.0000
  46 C   :2py   -0.0000  -0.0000  -0.0000   0.0224   0.0000   0.0000   0.3131
  47 C   :2pz    0.0976   0.1554   0.1225   0.0000  -0.3236  -0.2583   0.0000
  48 C   :2px   -0.1031   0.1103   0.0309   0.0000   0.1222  -0.1448   0.0000
  49 C   :2py   -0.0000  -0.0000  -0.0000   0.0226  -0.0000  -0.0000  -0.0182
  50 C   :2pz    0.0562   0.0322  -0.1049   0.0000   0.1876  -0.0026  -0.0000
  54 C   :2px    0.0379   0.0077   0.0017  -0.0000   0.0160  -0.0212   0.0000
  55 C   :2py    0.0000  -0.0000  -0.0000  -0.0136   0.0000   0.0000  -0.0042
  56 C   :2pz    0.0939   0.0395   0.0788  -0.0000  -0.0109  -0.0210  -0.0000
  57 C   :3d2-  -0.0000   0.0000  -0.0000  -0.0006   0.0000  -0.0000  -0.0134
  59 C   :3d0    0.0155   0.0028   0.0025   0.0000  -0.0080  -0.0119   0.0000
  64 C   :3d0    0.0116  -0.0006  -0.0227   0.0000   0.0389   0.0144  -0.0000
  65 C   :3d1+   0.0191  -0.0938   0.0253  -0.0000  -0.0063   0.0190  -0.0000
  66 C   :3d2+  -0.0073  -0.0019   0.0096  -0.0000  -0.0234  -0.0105   0.0000
  67 C   :2px    0.1699  -0.3057  -0.1377  -0.0000   0.3922  -0.0937   0.0000
  68 C   :2py   -0.0000   0.0000  -0.0000   0.0117   0.0000   0.0000   0.3080
  69 C   :2px   -0.1567   0.3720   0.0127   0.0000   0.0128  -0.0699  -0.0000
  70 C   :2py    0.0000   0.0000  -0.0000  -0.0133   0.0000   0.0000  -0.0313
  73 C   :2px    0.1340  -0.0491   0.0378  -0.0000   0.0143  -0.0211   0.0000
  74 C   :2py   -0.0000   0.0000   0.0000   0.0131   0.0000  -0.0000   0.0090
  75 C   :3d1-  -0.0000   0.0000  -0.0000   0.0015   0.0000   0.0000   0.0157
  76 C   :3d1+   0.0188  -0.0163  -0.0039  -0.0000   0.0117  -0.0199   0.0000
  77 C   :3d1-   0.0000   0.0000  -0.0000  -0.0106   0.0000   0.0000  -0.0024
  78 C   :3d1+  -0.0479   0.0781   0.0106   0.0000   0.0218   0.0014  -0.0000
  79 N   :2px   -0.0018   0.0453  -0.5393  -0.0000  -0.2076  -0.0123   0.0000
  80 N   :2py   -0.0000  -0.0000  -0.0000   0.6226   0.0000  -0.0000  -0.0900
  81 N   :2px    0.0098   0.0028   0.0214  -0.0000  -0.0035   0.0111  -0.0000
  82 N   :2py   -0.0000  -0.0000   0.0000  -0.0392   0.0000  -0.0000   0.0157
  85 N   :2px    0.0010  -0.0579   0.0084   0.0000  -0.0838  -0.0469  -0.0000
  86 N   :2py   -0.0000  -0.0000   0.0000   0.0466   0.0000  -0.0000  -0.0076
  87 N   :3d1-  -0.0000  -0.0000  -0.0000   0.0165   0.0000  -0.0000  -0.0135
  88 N   :3d1+  -0.0040  -0.0068  -0.0128  -0.0000  -0.0185  -0.0033   0.0000
  89 N   :3d1-   0.0000   0.0000  -0.0000  -0.0494  -0.0000   0.0000  -0.0122
  90 N   :3d1+  -0.0314  -0.0451   0.0468  -0.0000  -0.0320   0.0194   0.0000
  92 O   :1s    -0.0312  -0.0717   0.2912  -0.0000   0.0673  -0.0144  -0.0000
  93 O   :1s     0.0097   0.0086   0.0822   0.0000   0.0571  -0.0114  -0.0000
  95 O   :1s    -0.0058   0.0343   0.0173  -0.0000   0.0660   0.0128   0.0000
  96 O   :2px    0.0034  -0.0101   0.3214  -0.0000   0.1716   0.0434   0.0000
  97 O   :2py   -0.0000  -0.0000   0.0000   0.4068   0.0000  -0.0000  -0.1269
  98 O   :2pz   -0.0098  -0.0530   0.3238  -0.0000   0.0749  -0.0585  -0.0000
  99 O   :2px   -0.0061  -0.0081  -0.0301  -0.0000  -0.0265   0.0063   0.0000
 101 O   :2pz    0.0095   0.0123  -0.0281   0.0000  -0.0023  -0.0061  -0.0000
 105 O   :2px   -0.0046  -0.0105   0.0006   0.0000   0.0055   0.0009   0.0000
 107 O   :2pz    0.0035  -0.0018   0.0176  -0.0000   0.0021  -0.0014  -0.0000
 108 O   :3d2-   0.0000   0.0000  -0.0000  -0.0177  -0.0000   0.0000   0.0043
 109 O   :3d1-   0.0000   0.0000  -0.0000  -0.0101  -0.0000   0.0000   0.0015
 111 O   :3d1+  -0.0001   0.0014  -0.0157   0.0000  -0.0055  -0.0001   0.0000
 113 O   :3d2-  -0.0000   0.0000  -0.0000  -0.0247  -0.0000  -0.0000   0.0037
 114 O   :3d1-  -0.0000  -0.0000  -0.0000  -0.0105  -0.0000   0.0000   0.0048
 118 H   :1s     0.1571   0.2114   0.0735   0.0000  -0.0261   0.3424   0.0000
 119 H   :1s     0.0374   0.0870   0.0326   0.0000   0.0002   0.0223   0.0000
 120 H   :1s    -0.0053  -0.0115  -0.0279   0.0000   0.0052  -0.0005   0.0000
 121 H   :2px   -0.0092  -0.0118  -0.0026  -0.0000  -0.0018  -0.0108  -0.0000
 124 H   :2px   -0.0276  -0.0305  -0.0209  -0.0000   0.0053  -0.0224  -0.0000
 125 H   :2py    0.0000  -0.0000   0.0000  -0.0163   0.0000  -0.0000  -0.0086
 126 H   :2pz    0.0094  -0.0179   0.0050   0.0000  -0.0053  -0.0201  -0.0000
 127 H   :1s     0.1496  -0.2278  -0.0436  -0.0000  -0.0091   0.3204  -0.0000
 128 H   :1s     0.0095  -0.0489  -0.0289   0.0000   0.0229  -0.0159  -0.0000
 129 H   :1s    -0.0033   0.0108   0.0203  -0.0000  -0.0061   0.0080  -0.0000
 130 H   :2px   -0.0085   0.0127   0.0024   0.0000  -0.0020  -0.0106   0.0000
 133 H   :2px   -0.0137   0.0232   0.0054   0.0000   0.0052  -0.0142   0.0000
 135 H   :2pz    0.0014  -0.0122  -0.0177   0.0000   0.0168   0.0177  -0.0000
 138 H   :2px   -0.0184   0.0229   0.0111   0.0000  -0.0103   0.0036  -0.0000

    Orbital        12       13       14       15       16       17       18
   1 C   :2px    0.3632  -0.0449   0.0000   0.0000  -0.0008  -0.0185  -0.0000
   2 C   :2py    0.0000   0.0000   0.5158   0.2773   0.0000  -0.0000  -0.0373
   3 C   :2px   -0.1719   0.1282  -0.0000  -0.0000   0.7326   0.6708   0.0000
   4 C   :2py    0.0000   0.0000   0.0333   0.0632   0.0000  -0.0000  -0.0126
   7 C   :2px   -0.0066  -0.2034   0.0000   0.0001   6.8788   2.7975  -0.0006
   8 C   :2py   -0.0000   0.0000   0.0308   0.2971  -0.0000  -0.0001  -1.2383
   9 C   :3d1-  -0.0000   0.0000  -0.0048   0.0340   0.0000  -0.0000   0.0035
  10 C   :3d1+  -0.0198  -0.0002  -0.0000   0.0000  -0.0002   0.0004  -0.0000
  11 C   :3d1-  -0.0000   0.0000  -0.0355   0.0181  -0.0000  -0.0000  -0.0912
  12 C   :3d1+   0.0415  -0.0683   0.0000   0.0000  -0.1164   0.3066  -0.0001
  13 C   :1s     0.0010   0.0007  -0.0000   0.0000   0.0036   0.0109  -0.0000
  14 C   :1s     0.0035  -0.0465  -0.0000   0.0000   0.0287   0.0819  -0.0000
  15 C   :1s     0.0150  -0.1441   0.0000   0.0000  -0.4055  -0.5796   0.0000
  17 C   :1s     0.2298   0.1413   0.0000  -0.0001  -2.3069 -10.3109   0.0014
  18 C   :2px   -0.3211  -0.0332  -0.0000  -0.0000   0.0337   0.0376   0.0000
  19 C   :2py    0.0000  -0.0000   0.1954  -0.2465  -0.0000   0.0000  -0.0717
  20 C   :2pz    0.0150  -0.0990   0.0000  -0.0000   0.0231   0.0101  -0.0000
  21 C   :2px   -0.0092   0.1330  -0.0000  -0.0000   0.5220  -0.1330   0.0001
  22 C   :2py   -0.0000  -0.0000  -0.0164  -0.0555  -0.0000  -0.0000  -0.1262
  23 C   :2pz    0.1586   0.0930   0.0000   0.0000  -0.2549   0.2763  -0.0000
  27 C   :2px    0.0111  -0.0508   0.0000   0.0000   2.0029   5.2905  -0.0003
  28 C   :2py    0.0000  -0.0000   0.0130  -0.3120   0.0000   0.0000   0.8509
  29 C   :2pz   -0.0723   0.0893  -0.0000  -0.0000  -3.3316   2.8277  -0.0001
  30 C   :3d2-  -0.0000  -0.0000  -0.0199  -0.0113  -0.0000  -0.0000   0.0027
  31 C   :3d1-  -0.0000   0.0000   0.0215   0.0126   0.0000  -0.0000   0.0010
  33 C   :3d1+  -0.0313   0.0006  -0.0000  -0.0000   0.0011  -0.0024   0.0000
  35 C   :3d2-   0.0000   0.0000   0.0146  -0.0138   0.0000   0.0000   0.0706
  36 C   :3d1-   0.0000  -0.0000   0.0081   0.0157  -0.0000   0.0000   0.0645
  37 C   :3d0   -0.0552  -0.0089  -0.0000  -0.0000   0.0343  -0.2866   0.0000
  38 C   :3d1+   0.0588  -0.0127  -0.0000  -0.0000  -0.0127   0.4488  -0.0000
  39 C   :3d2+   0.0273   0.0046   0.0000   0.0000  -0.0380   0.0682   0.0000
  41 C   :1s    -0.0165   0.0225  -0.0000  -0.0000   0.0673  -0.0476   0.0000
  42 C   :1s     0.0139   0.0868   0.0000   0.0000  -0.7026   0.3185  -0.0000
  44 C   :1s    -0.2069  -0.0576  -0.0000   0.0001  -3.3665   8.6421  -0.0007
  45 C   :2px    0.3644   0.0150   0.0000  -0.0000   0.0542  -0.0118   0.0000
  46 C   :2py    0.0000  -0.0000  -0.2604  -0.0916  -0.0000   0.0000  -0.0993
  47 C   :2pz    0.0176   0.0690  -0.0000  -0.0000  -0.0293   0.0078   0.0000
  48 C   :2px   -0.0200  -0.0477   0.0000   0.0000   0.5405   0.4700  -0.0000
  49 C   :2py   -0.0000  -0.0000   0.0051  -0.0138   0.0000   0.0000  -0.0360
  50 C   :2pz    0.1383   0.0646   0.0000   0.0000   0.2280   0.4847  -0.0000
  54 C   :2px   -0.0255   0.0546  -0.0000  -0.0000   1.4533  -4.0336   0.0002
  55 C   :2py   -0.0000  -0.0000  -0.0180  -0.1181   0.0000  -0.0000   0.0107
  56 C   :2pz   -0.0448   0.0843  -0.0000  -0.0000  -3.2780   2.1626  -0.0002
  57 C   :3d2-  -0.0000   0.0000   0.0185  -0.0147  -0.0000  -0.0000   0.0047
  58 C   :3d1-   0.0000  -0.0000   0.0173  -0.0229  -0.0000   0.0000  -0.0034
  60 C   :3d1+  -0.0312  -0.0026  -0.0000  -0.0000   0.0015  -0.0025   0.0000
  62 C   :3d2-  -0.0000   0.0000  -0.0013  -0.0051  -0.0000  -0.0000  -0.0149
  63 C   :3d1-   0.0000  -0.0000   0.0018  -0.0107   0.0000  -0.0000   0.0203
  64 C   :3d0    0.0521   0.0082   0.0000   0.0000  -0.0243   0.2481  -0.0000
  65 C   :3d1+   0.0711  -0.0248  -0.0000  -0.0000  -0.3321   0.3058  -0.0000
  66 C   :3d2+  -0.0246  -0.0021  -0.0000  -0.0000  -0.0314  -0.0725  -0.0000
  67 C   :2px   -0.3980  -0.0506  -0.0000  -0.0000  -0.0097   0.0037   0.0000
  68 C   :2py    0.0000  -0.0000  -0.4656   0.3261   0.0000   0.0000  -0.0927
  69 C   :2px    0.0930   0.0198   0.0000   0.0000   1.2100   0.0370  -0.0000
  70 C   :2py   -0.0000   0.0000  -0.0149   0.0757  -0.0000  -0.0000  -0.1517
  73 C   :2px   -0.0268   0.1174  -0.0000  -0.0000  -1.4637  -0.6960   0.0000
  74 C   :2py    0.0000  -0.0000  -0.0228   0.4187  -0.0000   0.0000   0.7134
  75 C   :3d1-   0.0000  -0.0000  -0.0134  -0.0060  -0.0000   0.0000  -0.0068
  76 C   :3d1+  -0.0229   0.0001  -0.0000   0.0000   0.0051  -0.0018  -0.0000
  77 C   :3d1-  -0.0000   0.0000  -0.0093  -0.0078  -0.0000  -0.0000  -0.0557
  78 C   :3d1+   0.0603  -0.0162   0.0000   0.0000   0.1917   0.2463  -0.0000
  79 N   :2px   -0.0377  -0.1002  -0.0000  -0.0000  -0.0059  -0.0172  -0.0000
  80 N   :2py   -0.0000  -0.0000  -0.0116   0.4768   0.0000  -0.0000   0.0315
  81 N   :2px    0.0081   0.0721  -0.0000  -0.0000  -0.0196  -0.0566   0.0000
  82 N   :2py    0.0000  -0.0000   0.0187   0.1051   0.0000   0.0000   0.0260
  85 N   :2px    0.0172   0.0571  -0.0000  -0.0000  -0.9577  -0.4137   0.0001
  86 N   :2py   -0.0000  -0.0000  -0.0153   0.3019   0.0000   0.0000   0.5179
  87 N   :3d1-  -0.0000  -0.0000  -0.0199  -0.0250  -0.0000   0.0000   0.0002
  88 N   :3d1+  -0.0059  -0.0449   0.0000  -0.0000  -0.0029  -0.0022   0.0000
  89 N   :3d1-  -0.0000   0.0000  -0.0235  -0.0222  -0.0000  -0.0000  -0.0424
  90 N   :3d1+  -0.0377   0.0213  -0.0000   0.0000   0.0522   0.1024  -0.0000
  92 O   :1s     0.0154   0.0024  -0.0000  -0.0000   0.0076   0.0272   0.0000
  93 O   :1s     0.0233  -0.0216   0.0000   0.0000  -0.0151  -0.0223  -0.0000
  95 O   :1s    -0.0020  -0.0217   0.0000   0.0000   0.2768  -0.1340  -0.0001
  96 O   :2px    0.0103   0.4498   0.0000   0.0000   0.0094   0.0202   0.0000
  97 O   :2py   -0.0000   0.0000  -0.1530  -0.3376  -0.0000   0.0000  -0.0543
  98 O   :2pz    0.0699  -0.5120   0.0000   0.0000  -0.0000  -0.0073  -0.0000
  99 O   :2px   -0.0117   0.0324  -0.0000  -0.0000   0.0079   0.0344   0.0000
 100 O   :2py   -0.0000   0.0000  -0.0103  -0.0639  -0.0000   0.0000  -0.0100
 101 O   :2pz    0.0105  -0.0297   0.0000   0.0000  -0.0142  -0.0154   0.0000
 105 O   :2px    0.0058   0.0294  -0.0000  -0.0000   0.0777   0.0924   0.0000
 106 O   :2py   -0.0000   0.0000  -0.0112  -0.2383  -0.0000  -0.0000  -0.1003
 107 O   :2pz    0.0021  -0.0434   0.0000   0.0000   0.0001   0.1509  -0.0000
 115 O   :3d0   -0.0068   0.0243  -0.0000  -0.0000   0.0063   0.0083   0.0000
 117 O   :3d2+   0.0017  -0.0140   0.0000   0.0000  -0.0045  -0.0048  -0.0000
 118 H   :1s    -0.3098  -0.0885  -0.0000  -0.0000   0.0087   0.0080  -0.0000
 119 H   :1s    -0.1099  -0.0917  -0.0000   0.0000  -0.1266  -0.6118  -0.0001
 120 H   :1s    -0.0012  -0.0015  -0.0000  -0.0000  -1.1298  -6.7786   0.0002
 124 H   :2px    0.0497   0.0270  -0.0000  -0.0000  -0.0085   0.0127   0.0000
 125 H   :2py   -0.0000   0.0000  -0.0085  -0.0057  -0.0000   0.0000  -0.0799
 126 H   :2pz    0.0259   0.0295   0.0000   0.0000   0.0452  -0.0110   0.0000
 127 H   :1s     0.3454  -0.0047   0.0000   0.0000   0.0161  -0.0045   0.0000
 128 H   :1s     0.1248   0.0338   0.0000  -0.0000  -0.6554   0.2862   0.0000
 129 H   :1s     0.0160  -0.0029   0.0000   0.0000  -3.9504   4.8765  -0.0001
 133 H   :2px   -0.0543  -0.0081  -0.0000   0.0000   0.0567   0.0160  -0.0000
 134 H   :2py    0.0000  -0.0000  -0.0025  -0.0077   0.0000   0.0000  -0.0106
 135 H   :2pz    0.0236   0.0092   0.0000   0.0000  -0.0045  -0.0042   0.0000
 137 H   :2py    0.0000  -0.0000  -0.0116   0.0114   0.0000  -0.0000   0.0063
 138 H   :2px    0.0214  -0.0073   0.0000   0.0000  -0.0426   0.0602  -0.0000
 139 H   :2py   -0.0000   0.0000  -0.0073   0.0143  -0.0000  -0.0000  -0.0488

    Orbital        19       20       21       22       23       24
   1 C   :2px   -0.0000   0.0025   0.0461   0.0000  -0.0064  -0.0004
   2 C   :2py   -0.2483  -0.0000   0.0000  -0.0573  -0.0000  -0.0000
   3 C   :2px   -0.0000   1.0892  -0.5637   0.0000  -3.7549   2.1807
   4 C   :2py   -0.1426  -0.0000  -0.0000   0.0421   0.0000  -0.0000
   7 C   :2px    0.0002 -36.9033  -0.0869   0.0003  16.5198   6.7142
   8 C   :2py   -1.9736   0.0002  -0.0001   1.3223  -0.0000  -0.0000
   9 C   :3d1-   0.0164   0.0000  -0.0000   0.0081   0.0000   0.0000
  10 C   :3d1+  -0.0000   0.0033   0.0040  -0.0000   0.0152   0.0036
  11 C   :3d1-   0.0697   0.0000  -0.0000  -0.1357  -0.0000  -0.0000
  12 C   :3d1+   0.0000  -1.1444   0.7580   0.0000   1.4927  -0.1118
  13 C   :1s     0.0000  -0.0157   0.0104   0.0000  -0.0016   0.0090
  14 C   :1s     0.0000  -0.0243   0.0052  -0.0000  -0.0071  -0.0169
  15 C   :1s    -0.0000  -0.3549   0.2524   0.0000   1.9721  -1.3873
  17 C   :1s    -0.0002  29.8678 -16.0601  -0.0007 -21.6234 -15.2232
  18 C   :2px   -0.0000   0.0516  -0.0193  -0.0000   0.0708  -0.0601
  19 C   :2py    0.0311  -0.0000   0.0000  -0.1156  -0.0000  -0.0000
  20 C   :2pz    0.0000   0.0117   0.0315   0.0000   0.0379  -0.0310
  21 C   :2px   -0.0000   1.1839  -1.1083   0.0000  -2.8106   0.6481
  22 C   :2py    0.0669   0.0000   0.0000  -0.1286   0.0000  -0.0000
  23 C   :2pz    0.0000  -0.5890   0.5722  -0.0000   1.2219  -0.9780
  27 C   :2px    0.0001 -10.2243   3.8932   0.0001   2.5208   3.7119
  28 C   :2py    0.4267   0.0000   0.0000   0.5438  -0.0000   0.0000
  29 C   :2pz   -0.0001  16.8300   4.1919  -0.0000  -4.6472   6.7631
  30 C   :3d2-   0.0181   0.0000  -0.0000  -0.0005  -0.0000   0.0000
  31 C   :3d1-  -0.0187   0.0000  -0.0000   0.0061   0.0000  -0.0000
  35 C   :3d2-  -0.0357  -0.0000  -0.0000   0.1259  -0.0000   0.0000
  36 C   :3d1-  -0.0168   0.0000  -0.0000   0.0104   0.0000   0.0000
  37 C   :3d0   -0.0000   0.6434  -0.4996  -0.0000  -0.5018   0.2972
  38 C   :3d1+  -0.0000   0.2936   0.3744   0.0000  -0.4926   0.5095
  39 C   :3d2+   0.0000  -0.0498   0.1089  -0.0000   0.1340  -0.1747
  40 C   :1s    -0.0000  -0.0076  -0.0126  -0.0000  -0.0150   0.0067
  41 C   :1s     0.0000   0.0218   0.0056  -0.0000   0.0065   0.0392
  42 C   :1s     0.0000  -0.0333   0.6548   0.0000   2.3974  -2.2224
  44 C   :1s     0.0001  11.4707  20.0758   0.0000   5.7091  22.4618
  45 C   :2px   -0.0000   0.0564   0.0129  -0.0000   0.1143  -0.0431
  46 C   :2py    0.1815   0.0000  -0.0000  -0.0101  -0.0000  -0.0000
  47 C   :2pz    0.0000  -0.0180  -0.0377  -0.0000  -0.0501   0.0226
  48 C   :2px    0.0000  -0.6139   0.7554   0.0000  -1.4061   1.7002
  49 C   :2py    0.0347   0.0000  -0.0000   0.0647  -0.0000   0.0000
  50 C   :2pz    0.0000  -1.2952   0.4113  -0.0000   0.1126  -0.0615
  54 C   :2px   -0.0001   3.0739  -3.8909   0.0001  -7.4501  -0.8951
  55 C   :2py    1.5594  -0.0001  -0.0000  -0.3876   0.0000  -0.0001
  56 C   :2pz   -0.0001   6.1955   4.9062   0.0002   2.6190  -1.5983
  57 C   :3d2-   0.0174  -0.0000   0.0000  -0.0067  -0.0000   0.0000
  58 C   :3d1-   0.0115   0.0000  -0.0000   0.0010   0.0000   0.0000
  62 C   :3d2-   0.0366  -0.0000  -0.0000  -0.0701   0.0000  -0.0000
  63 C   :3d1-  -0.0242   0.0000  -0.0000  -0.0476  -0.0000   0.0000
  64 C   :3d0    0.0000  -0.0891   0.2140  -0.0000   0.1084   0.2142
  65 C   :3d1+  -0.0000   0.2714   0.5075   0.0000   0.6252  -0.1850
  66 C   :3d2+  -0.0000   0.2333   0.0574   0.0000  -0.0361   0.0012
  67 C   :2px   -0.0000   0.0057   0.0241   0.0000  -0.0310  -0.0051
  68 C   :2py   -0.2407   0.0000  -0.0000   0.1746   0.0000  -0.0000
  69 C   :2px    0.0000  -1.7417  -0.1663  -0.0000  -2.4871   1.8682
  70 C   :2py   -0.0521   0.0000  -0.0000   0.0109   0.0000  -0.0000
  73 C   :2px   -0.0001   3.4126  -5.2168   0.0001  -0.8270  -9.8356
  74 C   :2py   -2.4359  -0.0000   0.0001  -0.9100  -0.0000   0.0000
  75 C   :3d1-   0.0113   0.0000  -0.0000   0.0072   0.0000   0.0000
  76 C   :3d1+   0.0000  -0.0078   0.0040   0.0000  -0.0158   0.0105
  77 C   :3d1-   0.0485  -0.0000  -0.0000  -0.0317   0.0000  -0.0000
  78 C   :3d1+   0.0000  -0.2706   0.5593   0.0000  -0.5415   1.0054
  79 N   :2px   -0.0000   0.0097  -0.0215  -0.0000   0.0158   0.0823
  80 N   :2py    0.4905   0.0000  -0.0000   0.0371   0.0000   0.0000
  81 N   :2px   -0.0000   0.4533  -0.4104  -0.0000  -0.0401   0.6828
  82 N   :2py    0.1095   0.0000  -0.0000   0.0736   0.0000   0.0000
  85 N   :2px   -0.0000   4.9367  -0.0291  -0.0001  -2.1236  -0.1943
  86 N   :2py    1.0979  -0.0000   0.0000  -0.8851  -0.0000   0.0000
  89 N   :3d1-   0.0154   0.0000   0.0000  -0.0583  -0.0000  -0.0000
  90 N   :3d1+   0.0000  -0.0875  -0.0455  -0.0000   0.0467   0.4325
  92 O   :1s     0.0000   0.0057   0.0060   0.0000  -0.0205  -0.0586
  93 O   :1s     0.0000  -0.0653   0.1413   0.0000  -0.0466  -0.4290
  95 O   :1s     0.0000  -2.0588   0.6513   0.0001   0.2507  -2.6540
  96 O   :2px    0.0000  -0.0003   0.0148   0.0000  -0.0087  -0.0606
  97 O   :2py   -0.2194  -0.0000   0.0000  -0.1152  -0.0000  -0.0000
  98 O   :2pz   -0.0000  -0.0068   0.0064   0.0000   0.0049   0.0133
  99 O   :2px   -0.0000   0.0788  -0.0970  -0.0000   0.0242   0.3280
 100 O   :2py   -0.0491  -0.0000   0.0000  -0.0384  -0.0000   0.0000
 101 O   :2pz   -0.0000   0.0620  -0.0392  -0.0000   0.0298   0.0829
 105 O   :2px   -0.0000   0.0818  -0.3781  -0.0000  -0.0213   0.3100
 106 O   :2py   -0.4235   0.0000  -0.0000   0.2466   0.0000   0.0000
 107 O   :2pz   -0.0000   0.2477  -0.2393  -0.0000   0.1524   1.0781
 113 O   :3d2-   0.0035  -0.0000   0.0000  -0.0107  -0.0000  -0.0000
 115 O   :3d0    0.0000   0.0001  -0.0058  -0.0000  -0.0143   0.0166
 116 O   :3d1+   0.0000  -0.0217   0.0208   0.0000  -0.0030  -0.0419
 117 O   :3d2+   0.0000  -0.0052   0.0222   0.0000  -0.0040  -0.0434
 118 H   :1s     0.0000   0.0185  -0.0062  -0.0000   0.0192  -0.0027
 119 H   :1s    -0.0000  -1.8542   0.0864  -0.0000   2.5859  -0.0634
 120 H   :1s    -0.0000   3.9910  -4.0518  -0.0002  -1.2927  -5.7745
 124 H   :2px   -0.0000   0.4388  -0.0914   0.0000  -0.4797  -0.0310
 125 H   :2py    0.0149   0.0000   0.0000  -0.1389  -0.0000  -0.0000
 126 H   :2pz    0.0000  -0.0080   0.0307   0.0000  -0.1859  -0.1801
 127 H   :1s     0.0000   0.0422   0.0177  -0.0000   0.0394   0.0026
 128 H   :1s    -0.0000  -0.5627  -0.2466   0.0000   2.0319  -1.8206
 129 H   :1s     0.0000   2.8298   5.2421   0.0000   5.2556   2.3573
 133 H   :2px    0.0000   0.1321  -0.0059  -0.0000  -0.2430   0.2963
 134 H   :2py   -0.0322   0.0000   0.0000   0.0191  -0.0000   0.0000
 135 H   :2pz    0.0000  -0.1126  -0.2572  -0.0000   0.2100  -0.0768
 137 H   :2py   -0.0150  -0.0000   0.0000  -0.0053  -0.0000  -0.0000
 138 H   :2px    0.0000   0.0341   0.3977   0.0000  -0.0612   0.3014
 139 H   :2py    0.0521   0.0000  -0.0000   0.0665   0.0000  -0.0000

  Total CPU  time used in SIRIUS :  2 minutes  3 seconds
  Total wall time used in SIRIUS :  2 minutes  4 seconds

 
     Date and time (Linux)  : Fri Jun 14 17:39:31 2019
     Host name              : Lab2-333-NPs                            


                     .---------------------------------------.
                     | End of Wave Function Section (SIRIUS) |
                     `---------------------------------------'



                 .------------------------------------------------.
                 | Starting in Dynamic Property Section (RESPONS) |
                 `------------------------------------------------'


 ------------------------------------------------------------------------------
  RESPONSE  -  an MCSCF, MC-srDFT, DFT, and SOPPA response property program
 ------------------------------------------------------------------------------


 -------- OUTPUT FROM RESPONSE INPUT PROCESSING --------




 Linear Response calculation
 ---------------------------

 Print level                                    : IPRLR  =   2
 Maximum number of iterations                   : MAXITL =  60
 Threshold for relative convergence             : THCLR  = 1.000D-03
 Maximum iterations in optimal orbital algorithm: MAXITO =   5

  1 B-frequencies  5.700000D-02

    1 second order properties calculated with symmetry no.    1 and labels:

          ZDIPLEN 

    2 second order properties calculated with symmetry no.    2 and labels:

          XDIPLEN 
          YDIPLEN 
