

     ************************************************************************
     *************** Dalton - An Electronic Structure Program ***************
     ************************************************************************

    This is output from DALTON release Dalton2018.1 (2019)
         ( Web site: http://daltonprogram.org )

   ----------------------------------------------------------------------------

    NOTE:
     
    Dalton is an experimental code for the evaluation of molecular
    properties using (MC)SCF, DFT, CI, and CC wave functions.
    The authors accept no responsibility for the performance of
    the code or for the correctness of the results.
     
    The code (in whole or part) is provided under a licence and
    is not to be reproduced for further distribution without
    the written permission of the authors or their representatives.
     
    See the home page "http://daltonprogram.org" for further information.
     
    If results obtained with this code are published,
    the appropriate citations would be both of:
     
       K. Aidas, C. Angeli, K. L. Bak, V. Bakken, R. Bast,
       L. Boman, O. Christiansen, R. Cimiraglia, S. Coriani,
       P. Dahle, E. K. Dalskov, U. Ekstroem,
       T. Enevoldsen, J. J. Eriksen, P. Ettenhuber, B. Fernandez,
       L. Ferrighi, H. Fliegl, L. Frediani, K. Hald, A. Halkier,
       C. Haettig, H. Heiberg, T. Helgaker, A. C. Hennum,
       H. Hettema, E. Hjertenaes, S. Hoest, I.-M. Hoeyvik,
       M. F. Iozzi, B. Jansik, H. J. Aa. Jensen, D. Jonsson,
       P. Joergensen, J. Kauczor, S. Kirpekar,
       T. Kjaergaard, W. Klopper, S. Knecht, R. Kobayashi, H. Koch,
       J. Kongsted, A. Krapp, K. Kristensen, A. Ligabue,
       O. B. Lutnaes, J. I. Melo, K. V. Mikkelsen, R. H. Myhre,
       C. Neiss, C. B. Nielsen, P. Norman, J. Olsen,
       J. M. H. Olsen, A. Osted, M. J. Packer, F. Pawlowski,
       T. B. Pedersen, P. F. Provasi, S. Reine, Z. Rinkevicius,
       T. A. Ruden, K. Ruud, V. Rybkin, P. Salek, C. C. M. Samson,
       A. Sanchez de Meras, T. Saue, S. P. A. Sauer,
       B. Schimmelpfennig, K. Sneskov, A. H. Steindal,
       K. O. Sylvester-Hvid, P. R. Taylor, A. M. Teale,
       E. I. Tellgren, D. P. Tew, A. J. Thorvaldsen, L. Thoegersen,
       O. Vahtras, M. A. Watson, D. J. D. Wilson, M. Ziolkowski
       and H. Agren,
       "The Dalton quantum chemistry program system",
       WIREs Comput. Mol. Sci. 2014, 4:269–284 (doi: 10.1002/wcms.1172)
     
    and
     
       Dalton, a molecular electronic structure program,
       Release Dalton2018.1 (2019), see http://daltonprogram.org
   ----------------------------------------------------------------------------

    Authors in alphabetical order (major contribution(s) in parenthesis):

  Kestutis Aidas,           Vilnius University,           Lithuania   (QM/MM)
  Celestino Angeli,         University of Ferrara,        Italy       (NEVPT2)
  Keld L. Bak,              UNI-C,                        Denmark     (AOSOPPA, non-adiabatic coupling, magnetic properties)
  Vebjoern Bakken,          University of Oslo,           Norway      (DALTON; geometry optimizer, symmetry detection)
  Radovan Bast,             UiT The Arctic U. of Norway,  Norway      (DALTON installation and execution frameworks)
  Pablo Baudin,             University of Valencia,       Spain       (Cholesky excitation energies)
  Linus Boman,              NTNU,                         Norway      (Cholesky decomposition and subsystems)
  Ove Christiansen,         Aarhus University,            Denmark     (CC module)
  Renzo Cimiraglia,         University of Ferrara,        Italy       (NEVPT2)
  Sonia Coriani,            Technical Univ. of Denmark,   Denmark     (CC module, MCD in RESPONS)
  Janusz Cukras,            University of Trieste,        Italy       (MChD in RESPONS)
  Paal Dahle,               University of Oslo,           Norway      (Parallelization)
  Erik K. Dalskov,          UNI-C,                        Denmark     (SOPPA)
  Thomas Enevoldsen,        Univ. of Southern Denmark,    Denmark     (SOPPA)
  Janus J. Eriksen,         Aarhus University,            Denmark     (Polarizable embedding model, TDA)
  Rasmus Faber,             University of Copenhagen,     Denmark     (Vib.avg. NMR with SOPPA, parallel AO-SOPPA)
  Tobias Fahleson,          KTH Stockholm,                Sweden      (Damped cubic response)
  Berta Fernandez,          U. of Santiago de Compostela, Spain       (doublet spin, ESR in RESPONS)
  Lara Ferrighi,            Aarhus University,            Denmark     (PCM Cubic response)
  Heike Fliegl,             University of Oslo,           Norway      (CCSD(R12))
  Luca Frediani,            UiT The Arctic U. of Norway,  Norway      (PCM)
  Bin Gao,                  UiT The Arctic U. of Norway,  Norway      (Gen1Int library)
  Christof Haettig,         Ruhr-University Bochum,       Germany     (CC module)
  Kasper Hald,              Aarhus University,            Denmark     (CC module)
  Asger Halkier,            Aarhus University,            Denmark     (CC module)
  Frederik Beyer Hansen,    University of Copenhagen,     Denmark     (Parallel AO-SOPPA)
  Erik D. Hedegaard,        Univ. of Southern Denmark,    Denmark     (Polarizable embedding model, QM/MM)
  Hanne Heiberg,            University of Oslo,           Norway      (geometry analysis, selected one-electron integrals)
  Trygve Helgaker,          University of Oslo,           Norway      (DALTON; ABACUS, ERI, DFT modules, London, and much more)
  Alf Christian Hennum,     University of Oslo,           Norway      (Parity violation)
  Hinne Hettema,            University of Auckland,       New Zealand (quadratic response in RESPONS; SIRIUS supersymmetry)
  Eirik Hjertenaes,         NTNU,                         Norway      (Cholesky decomposition)
  Pi A. B. Haase,           University of Copenhagen,     Denmark     (Triplet AO-SOPPA)
  Maria Francesca Iozzi,    University of Oslo,           Norway      (RPA)
  Christoph Jacob           TU Braunschweig               Germany     (Frozen density embedding model)
  Brano Jansik              Technical Univ. of Ostrava    Czech Rep.  (DFT cubic response)
  Hans Joergen Aa. Jensen,  Univ. of Southern Denmark,    Denmark     (DALTON; SIRIUS, RESPONS, ABACUS modules, London, and much more)
  Dan Jonsson,              UiT The Arctic U. of Norway,  Norway      (cubic response in RESPONS module)
  Poul Joergensen,          Aarhus University,            Denmark     (RESPONS, ABACUS, and CC modules)
  Maciej Kaminski,          University of Warsaw,         Poland      (CPPh in RESPONS)
  Joanna Kauczor,           Linkoeping University,        Sweden      (Complex polarization propagator (CPP) module)
  Sheela Kirpekar,          Univ. of Southern Denmark,    Denmark     (Mass-velocity & Darwin integrals)
  Wim Klopper,              KIT Karlsruhe,                Germany     (R12 code in CC, SIRIUS, and ABACUS modules)
  Stefan Knecht,            ETH Zurich,                   Switzerland (Parallel CI and MCSCF)
  Rika Kobayashi,           Australian National Univ.,    Australia   (DIIS in CC, London in MCSCF)
  Henrik Koch,              NTNU,                         Norway      (CC module, Cholesky decomposition)
  Jacob Kongsted,           Univ. of Southern Denmark,    Denmark     (Polarizable embedding model, QM/MM)
  Andrea Ligabue,           University of Modena,         Italy       (CTOCD, AOSOPPA)
  Nanna H. List             Univ. of Southern Denmark,    Denmark     (Polarizable embedding model)
  Ola B. Lutnaes,           University of Oslo,           Norway      (DFT Hessian)
  Juan I. Melo,             University of Buenos Aires,   Argentina   (LRESC, Relativistic Effects on NMR Shieldings)
  Kurt V. Mikkelsen,        University of Copenhagen,     Denmark     (MC-SCRF and QM/MM)
  Rolf H. Myhre,            NTNU,                         Norway      (Subsystems and CC3)
  Christian Neiss,          Univ. Erlangen-Nuernberg,     Germany     (CCSD(R12))
  Christian B. Nielsen,     University of Copenhagen,     Denmark     (QM/MM)
  Patrick Norman,           KTH Stockholm,                Sweden      (Cubic response and complex frequency response in RESPONS)
  Jeppe Olsen,              Aarhus University,            Denmark     (SIRIUS CI/density modules)
  Jogvan Magnus H. Olsen,   Univ. of Southern Denmark,    Denmark     (Polarizable embedding model, QM/MM)
  Anders Osted,             Copenhagen University,        Denmark     (QM/MM)
  Martin J. Packer,         University of Sheffield,      UK          (SOPPA)
  Filip Pawlowski,          Kazimierz Wielki University,  Poland      (CC3)
  Morten N. Pedersen,       Univ. of Southern Denmark,    Denmark     (Polarizable embedding model)
  Thomas B. Pedersen,       University of Oslo,           Norway      (Cholesky decomposition)
  Patricio F. Provasi,      University of Northeastern,   Argentina   (Analysis of coupling constants in localized orbitals)
  Zilvinas Rinkevicius,     KTH Stockholm,                Sweden      (open-shell DFT, ESR)
  Elias Rudberg,            KTH Stockholm,                Sweden      (DFT grid and basis info)
  Torgeir A. Ruden,         University of Oslo,           Norway      (Numerical derivatives in ABACUS)
  Kenneth Ruud,             UiT The Arctic U. of Norway,  Norway      (DALTON; ABACUS magnetic properties and much more)
  Pawel Salek,              KTH Stockholm,                Sweden      (DALTON; DFT code)
  Claire C. M. Samson       University of Karlsruhe       Germany     (Boys localization, r12 integrals in ERI)
  Alfredo Sanchez de Meras, University of Valencia,       Spain       (CC module, Cholesky decomposition)
  Trond Saue,               Paul Sabatier University,     France      (direct Fock matrix construction)
  Stephan P. A. Sauer,      University of Copenhagen,     Denmark     (SOPPA(CCSD), SOPPA prop., AOSOPPA, vibrational g-factors)
  Andre S. P. Gomes,        CNRS/Universite de Lille,     France      (Frozen density embedding model)
  Bernd Schimmelpfennig,    Forschungszentrum Karlsruhe,  Germany     (AMFI module)
  Kristian Sneskov,         Aarhus University,            Denmark     (Polarizable embedding model, QM/MM)
  Arnfinn H. Steindal,      UiT The Arctic U. of Norway,  Norway      (parallel QM/MM, Polarizable embedding model)
  Casper Steinmann,         Univ. of Southern Denmark,    Denmark     (QFIT, Polarizable embedding model)
  K. O. Sylvester-Hvid,     University of Copenhagen,     Denmark     (MC-SCRF)
  Peter R. Taylor,          VLSCI/Univ. of Melbourne,     Australia   (Symmetry handling ABACUS, integral transformation)
  Andrew M. Teale,          University of Nottingham,     England     (DFT-AC, DFT-D)
  David P. Tew,             University of Bristol,        England     (CCSD(R12))
  Olav Vahtras,             KTH Stockholm,                Sweden      (triplet response, spin-orbit, ESR, TDDFT, open-shell DFT)
  Lucas Visscher,           Vrije Universiteit Amsterdam, Netherlands (Frozen density embedding model)
  David J. Wilson,          La Trobe University,          Australia   (DFT Hessian and DFT magnetizabilities)
  Hans Agren,               KTH Stockholm,                Sweden      (SIRIUS module, RESPONS, MC-SCRF solvation model)
 --------------------------------------------------------------------------------

     Date and time (Linux)  : Fri Jun 14 18:26:06 2019
     Host name              : Lab2-333-NPs                            

 * Work memory size             :    64000000 =  488.28 megabytes.

 * Directories for basis set searches:
   1) /home/lab333/dalton/build_2018_atlas
   2) /home/lab333/dalton/build_2018_atlas/basis


Compilation information
-----------------------

 Who compiled             | lab333
 Host                     | Lab2-333-NPs
 System                   | Linux-4.4.0-43-Microsoft
 CMake generator          | Unix Makefiles
 Processor                | x86_64
 64-bit integers          | OFF
 MPI                      | OFF
 Fortran compiler         | /usr/bin/gfortran
 Fortran compiler version | GNU Fortran (Ubuntu 7.3.0-27ubuntu1~18.04) 7.3.0
 C compiler               | /usr/bin/gcc
 C compiler version       | gcc (Ubuntu 7.3.0-27ubuntu1~18.04) 7.3.0
 C++ compiler             | /usr/bin/g++
 C++ compiler version     | g++ (Ubuntu 7.3.0-27ubuntu1~18.04) 7.3.0
 BLAS                     | /usr/lib/x86_64-linux-gnu/libf77blas.so;/usr/lib/x
                          | 86_64-linux-gnu/libcblas.so;/usr/lib/x86_64-linux-
                          | gnu/libatlas.so
 LAPACK                   | /usr/lib/x86_64-linux-gnu/libatlas.so;/usr/lib/x86
                          | _64-linux-gnu/atlas/liblapack.so
 Static linking           | OFF
 Last Git revision        | da625bf48c74028e805616daee31bc5d76b3a20d
 Git branch               | (HEAD detached at Dalton2018.1)
 Configuration time       | 2019-01-18 10:20:51.437510


   Content of the .dal input file
 ----------------------------------

**DALTON INPUT
.RUN RESPONSE
**WAVE FUNCTIONS
.HF
**RESPONSE
*LINEAR
.DIPLEN
.FREQUENCIES
1
0.057
**END OF DALTON INPUT



   Content of the .mol file
 ----------------------------

BASIS
aug-cc-pCVDZ
 nitrobenzene
 Generated by the Dalton Input File Plugin for Avogadro
Atomtypes=4 Angstrom Generators=2 X Y
Charge=6.0 Atoms=4
C          0.00000        0.00000        0.00000
C         -1.21751        0.00000       -0.69427
C         -1.21114        0.00000       -2.09021
C         -0.00000        0.00000       -2.78479
Charge=7.0 Atoms=1
N         -0.00000       -0.00000        1.46794
Charge=8.0 Atoms=1
O         -1.09689       -0.00000        2.04531
Charge=1.0 Atoms=3
H         -2.16969        0.00000       -0.16792
H         -2.15084        0.00000       -2.63827
H         -0.00000        0.00000       -3.87287


       *******************************************************************
       *********** Output from DALTON general input processing ***********
       *******************************************************************

 --------------------------------------------------------------------------------
   Overall default print level:    0
   Print level for DALTON.STAT:    1

    HERMIT 1- and 2-electron integral sections will be executed
    "Old" integral transformation used (limited to max 255 basis functions)
    Wave function sections will be executed (SIRIUS module)
    Dynamic molecular response properties section will be executed (RESPONSE module)
 --------------------------------------------------------------------------------


   ****************************************************************************
   *************** Output of molecule and basis set information ***************
   ****************************************************************************


    The two title cards from your ".mol" input:
    ------------------------------------------------------------------------
 1:  nitrobenzene                                                           
 2:  Generated by the Dalton Input File Plugin for Avogadro                 
    ------------------------------------------------------------------------

  Coordinates are entered in Angstrom and converted to atomic units.
          - Conversion factor : 1 bohr = 0.52917721 A

  Atomic type no.    1
  --------------------
  Nuclear charge:   6.00000
  Number of symmetry independent centers:    4
  Number of basis sets to read;    2
  Basis set file used for this atomic type with Z =   6 :
     "/home/lab333/dalton/build_2018_atlas/basis/aug-cc-pCVDZ"

  Atomic type no.    2
  --------------------
  Nuclear charge:   7.00000
  Number of symmetry independent centers:    1
  Number of basis sets to read;    2
  Basis set file used for this atomic type with Z =   7 :
     "/home/lab333/dalton/build_2018_atlas/basis/aug-cc-pCVDZ"

  Atomic type no.    3
  --------------------
  Nuclear charge:   8.00000
  Number of symmetry independent centers:    1
  Number of basis sets to read;    2
  Basis set file used for this atomic type with Z =   8 :
     "/home/lab333/dalton/build_2018_atlas/basis/aug-cc-pCVDZ"

  Atomic type no.    4
  --------------------
  Nuclear charge:   1.00000
  Number of symmetry independent centers:    3
  Number of basis sets to read;    2
  Basis set file used for this atomic type with Z =   1 :
     "/home/lab333/dalton/build_2018_atlas/basis/aug-cc-pCVDZ"


                         SYMGRP: Point group information
                         -------------------------------

@    Point group: C2v

@  * The irrep name for each symmetry:    1: A1     2: B1     3: B2     4: A2 

   * The point group was generated by:

      Reflection in the yz-plane
      Reflection in the xz-plane

   * Group multiplication table

        |  E   C2z  Oxz  Oyz
   -----+--------------------
     E  |  E   C2z  Oxz  Oyz
    C2z | C2z   E   Oyz  Oxz
    Oxz | Oxz  Oyz   E   C2z
    Oyz | Oyz  Oxz  C2z   E 

   * Character table

        |  E   C2z  Oxz  Oyz
   -----+--------------------
    A1  |   1    1    1    1
    B1  |   1   -1    1   -1
    B2  |   1   -1   -1    1
    A2  |   1    1   -1   -1

   * Direct product table

        | A1   B1   B2   A2 
   -----+--------------------
    A1  | A1   B1   B2   A2 
    B1  | B1   A1   A2   B2 
    B2  | B2   A2   A1   B1 
    A2  | A2   B2   B1   A1 


                                 Isotopic Masses
                                 ---------------

                           C          12.000000
                           C   _1     12.000000
                           C   _2     12.000000
                           C   _1     12.000000
                           C   _2     12.000000
                           C          12.000000
                           N          14.003074
                           O   _1     15.994915
                           O   _2     15.994915
                           H   _1      1.007825
                           H   _2      1.007825
                           H   _1      1.007825
                           H   _2      1.007825
                           H           1.007825

                       Total mass:   123.032029 amu
                       Natural abundance:  92.716 %

 Center-of-mass coordinates (a.u.):    0.000000    0.000000   -0.365861


  Atoms and basis sets
  --------------------

  Number of atom types :    4
  Total number of atoms:   14

  Basis set used is "aug-cc-pCVDZ" from the basis set library.

  label    atoms   charge   prim   cont     basis
  ----------------------------------------------------------------------
  C           6    6.0000    39    27      [11s6p2d|5s4p2d]                                   
  N           1    7.0000    39    27      [11s6p2d|5s4p2d]                                   
  O           2    8.0000    39    27      [11s6p2d|5s4p2d]                                   
  H           5    1.0000    11     9      [5s2p|3s2p]                                        
  ----------------------------------------------------------------------
  total:     14   64.0000   406   288
  ----------------------------------------------------------------------
  Spherical harmonic basis used.

  Threshold for neglecting AO integrals:  1.00D-12


  Symmetry Coordinates
  --------------------

  Number of coordinates in each symmetry:    14   14    9    5


   Interatomic separations (in Angstrom):
   --------------------------------------

            C           C   _1      C   _2      C   _1      C   _2      C     
            ------      ------      ------      ------      ------      ------
 C     :    0.000000
 C   _1:    1.401550    0.000000
 C   _2:    1.401550    2.435020    0.000000
 C   _1:    2.415748    1.395955    2.801248    0.000000
 C   _2:    2.415748    2.801248    1.395955    2.422280    0.000000
 C     :    2.784790    2.419216    2.419216    1.396174    1.396174    0.000000
 N     :    1.467940    2.481428    2.481428    3.758629    3.758629    4.252730
 O   _1:    2.320875    2.742234    3.586328    4.137098    4.735982    4.953083
 O   _2:    2.320875    3.586328    2.742234    4.735982    4.137098    4.953083
 H   _1:    2.176178    1.087976    3.427852    2.148026    3.889114    3.399347
 H   _2:    2.176178    3.427852    1.087976    3.889114    2.148026    3.399347
 H   _1:    3.403907    2.156442    3.889077    1.087845    3.406359    2.155825
 H   _2:    3.403907    3.889077    2.156442    3.406359    1.087845    2.155825
 H     :    3.872870    3.403796    3.403796    2.155165    2.155165    1.088080

            N           O   _1      O   _2      H   _1      H   _2      H   _1
            ------      ------      ------      ------      ------      ------
 N     :    0.000000
 O   _1:    1.239566    0.000000
 O   _2:    1.239566    2.193780    0.000000
 H   _1:    2.717277    2.459530    3.945749    0.000000
 H   _2:    2.717277    3.945749    2.459530    4.339380    0.000000
 H   _1:    4.635415    4.800701    5.699445    2.470422    4.976908    0.000000
 H   _2:    4.635415    5.699445    4.800701    4.976908    2.470422    4.301680
 H     :    5.340810    6.018972    6.018972    4.293508    4.293508    2.479990

            H   _2      H     
            ------      ------
 H   _2:    0.000000
 H     :    2.479990    0.000000


  Max    interatomic separation is    6.0190 Angstrom (   11.3742 Bohr)
  between atoms   14 and    8, "H     " and "O   _1".

  Min HX interatomic separation is    1.0878 Angstrom (    2.0557 Bohr)

  Min YX interatomic separation is    1.2396 Angstrom (    2.3424 Bohr)


  Bond distances (Angstrom):
  --------------------------

                  atom 1     atom 2       distance
                  ------     ------       --------
  bond distance:  C   _1     C            1.401550
  bond distance:  C   _2     C            1.401550
  bond distance:  C   _1     C   _1       1.395955
  bond distance:  C   _2     C   _2       1.395955
  bond distance:  C          C   _1       1.396174
  bond distance:  C          C   _2       1.396174
  bond distance:  N          C            1.467940
  bond distance:  O   _1     N            1.239566
  bond distance:  O   _2     N            1.239566
  bond distance:  H   _1     C   _1       1.087976
  bond distance:  H   _2     C   _2       1.087976
  bond distance:  H   _1     C   _1       1.087845
  bond distance:  H   _2     C   _2       1.087845
  bond distance:  H          C            1.088080


  Bond angles (degrees):
  ----------------------

                  atom 1     atom 2     atom 3         angle
                  ------     ------     ------         -----
  bond angle:     C   _1     C          C   _2       120.613
  bond angle:     C   _1     C          N            119.693
  bond angle:     C   _2     C          N            119.693
  bond angle:     C          C   _1     C   _1       119.432
  bond angle:     C          C   _1     H   _1       121.373
  bond angle:     C   _1     C   _1     H   _1       119.195
  bond angle:     C          C   _2     C   _2       119.432
  bond angle:     C          C   _2     H   _2       121.373
  bond angle:     C   _2     C   _2     H   _2       119.195
  bond angle:     C   _1     C   _1     C            120.095
  bond angle:     C   _1     C   _1     H   _1       119.991
  bond angle:     C          C   _1     H   _1       119.914
  bond angle:     C   _2     C   _2     C            120.095
  bond angle:     C   _2     C   _2     H   _2       119.991
  bond angle:     C          C   _2     H   _2       119.914
  bond angle:     C   _1     C          C   _2       120.332
  bond angle:     C   _1     C          H            119.834
  bond angle:     C   _2     C          H            119.834
  bond angle:     C          N          O   _1       117.761
  bond angle:     C          N          O   _2       117.761
  bond angle:     O   _1     N          O   _2       124.478




 Principal moments of inertia (u*A**2) and principal axes
 --------------------------------------------------------

   IA     128.083113          0.000000    0.000000    1.000000
   IB     398.073290          1.000000    0.000000    0.000000
   IC     526.156403          0.000000    1.000000    0.000000


 Rotational constants
 --------------------

@    The molecule is planar.

               A                   B                   C

           3945.7115           1269.5627            960.5110 MHz
            0.131615            0.042348            0.032039 cm-1


@  Nuclear repulsion energy :  410.144923220972 Hartree


  Symmetry Orbitals
  -----------------

  Number of orbitals in each symmetry:         115   91   48   34


  Symmetry  A1 ( 1)

    1     C        1s         1
    2     C        1s         2
    3     C        1s         3
    4     C        1s         4
    5     C        1s         5
    6     C        2pz        8
    7     C        2pz       11
    8     C        2pz       14
    9     C        2pz       17
   10     C        3d0       20
   11     C        3d2+      22
   12     C        3d0       25
   13     C        3d2+      27
   14     C        1s        28 +   29
   15     C        1s        30 +   31
   16     C        1s        32 +   33
   17     C        1s        34 +   35
   18     C        1s        36 +   37
   19     C        2px       38 -   39
   20     C        2pz       42 +   43
   21     C        2px       44 -   45
   22     C        2pz       48 +   49
   23     C        2px       50 -   51
   24     C        2pz       54 +   55
   25     C        2px       56 -   57
   26     C        2pz       60 +   61
   27     C        3d0       66 +   67
   28     C        3d1+      68 -   69
   29     C        3d2+      70 +   71
   30     C        3d0       76 +   77
   31     C        3d1+      78 -   79
   32     C        3d2+      80 +   81
   33     C        1s        82 +   83
   34     C        1s        84 +   85
   35     C        1s        86 +   87
   36     C        1s        88 +   89
   37     C        1s        90 +   91
   38     C        2px       92 -   93
   39     C        2pz       96 +   97
   40     C        2px       98 -   99
   41     C        2pz      102 +  103
   42     C        2px      104 -  105
   43     C        2pz      108 +  109
   44     C        2px      110 -  111
   45     C        2pz      114 +  115
   46     C        3d0      120 +  121
   47     C        3d1+     122 -  123
   48     C        3d2+     124 +  125
   49     C        3d0      130 +  131
   50     C        3d1+     132 -  133
   51     C        3d2+     134 +  135
   52     C        1s       136
   53     C        1s       137
   54     C        1s       138
   55     C        1s       139
   56     C        1s       140
   57     C        2pz      143
   58     C        2pz      146
   59     C        2pz      149
   60     C        2pz      152
   61     C        3d0      155
   62     C        3d2+     157
   63     C        3d0      160
   64     C        3d2+     162
   65     N        1s       163
   66     N        1s       164
   67     N        1s       165
   68     N        1s       166
   69     N        1s       167
   70     N        2pz      170
   71     N        2pz      173
   72     N        2pz      176
   73     N        2pz      179
   74     N        3d0      182
   75     N        3d2+     184
   76     N        3d0      187
   77     N        3d2+     189
   78     O        1s       190 +  191
   79     O        1s       192 +  193
   80     O        1s       194 +  195
   81     O        1s       196 +  197
   82     O        1s       198 +  199
   83     O        2px      200 -  201
   84     O        2pz      204 +  205
   85     O        2px      206 -  207
   86     O        2pz      210 +  211
   87     O        2px      212 -  213
   88     O        2pz      216 +  217
   89     O        2px      218 -  219
   90     O        2pz      222 +  223
   91     O        3d0      228 +  229
   92     O        3d1+     230 -  231
   93     O        3d2+     232 +  233
   94     O        3d0      238 +  239
   95     O        3d1+     240 -  241
   96     O        3d2+     242 +  243
   97     H        1s       244 +  245
   98     H        1s       246 +  247
   99     H        1s       248 +  249
  100     H        2px      250 -  251
  101     H        2pz      254 +  255
  102     H        2px      256 -  257
  103     H        2pz      260 +  261
  104     H        1s       262 +  263
  105     H        1s       264 +  265
  106     H        1s       266 +  267
  107     H        2px      268 -  269
  108     H        2pz      272 +  273
  109     H        2px      274 -  275
  110     H        2pz      278 +  279
  111     H        1s       280
  112     H        1s       281
  113     H        1s       282
  114     H        2pz      285
  115     H        2pz      288


  Symmetry  B1 ( 2)

  116     C        2px        6
  117     C        2px        9
  118     C        2px       12
  119     C        2px       15
  120     C        3d1+      21
  121     C        3d1+      26
  122     C        1s        28 -   29
  123     C        1s        30 -   31
  124     C        1s        32 -   33
  125     C        1s        34 -   35
  126     C        1s        36 -   37
  127     C        2px       38 +   39
  128     C        2pz       42 -   43
  129     C        2px       44 +   45
  130     C        2pz       48 -   49
  131     C        2px       50 +   51
  132     C        2pz       54 -   55
  133     C        2px       56 +   57
  134     C        2pz       60 -   61
  135     C        3d0       66 -   67
  136     C        3d1+      68 +   69
  137     C        3d2+      70 -   71
  138     C        3d0       76 -   77
  139     C        3d1+      78 +   79
  140     C        3d2+      80 -   81
  141     C        1s        82 -   83
  142     C        1s        84 -   85
  143     C        1s        86 -   87
  144     C        1s        88 -   89
  145     C        1s        90 -   91
  146     C        2px       92 +   93
  147     C        2pz       96 -   97
  148     C        2px       98 +   99
  149     C        2pz      102 -  103
  150     C        2px      104 +  105
  151     C        2pz      108 -  109
  152     C        2px      110 +  111
  153     C        2pz      114 -  115
  154     C        3d0      120 -  121
  155     C        3d1+     122 +  123
  156     C        3d2+     124 -  125
  157     C        3d0      130 -  131
  158     C        3d1+     132 +  133
  159     C        3d2+     134 -  135
  160     C        2px      141
  161     C        2px      144
  162     C        2px      147
  163     C        2px      150
  164     C        3d1+     156
  165     C        3d1+     161
  166     N        2px      168
  167     N        2px      171
  168     N        2px      174
  169     N        2px      177
  170     N        3d1+     183
  171     N        3d1+     188
  172     O        1s       190 -  191
  173     O        1s       192 -  193
  174     O        1s       194 -  195
  175     O        1s       196 -  197
  176     O        1s       198 -  199
  177     O        2px      200 +  201
  178     O        2pz      204 -  205
  179     O        2px      206 +  207
  180     O        2pz      210 -  211
  181     O        2px      212 +  213
  182     O        2pz      216 -  217
  183     O        2px      218 +  219
  184     O        2pz      222 -  223
  185     O        3d0      228 -  229
  186     O        3d1+     230 +  231
  187     O        3d2+     232 -  233
  188     O        3d0      238 -  239
  189     O        3d1+     240 +  241
  190     O        3d2+     242 -  243
  191     H        1s       244 -  245
  192     H        1s       246 -  247
  193     H        1s       248 -  249
  194     H        2px      250 +  251
  195     H        2pz      254 -  255
  196     H        2px      256 +  257
  197     H        2pz      260 -  261
  198     H        1s       262 -  263
  199     H        1s       264 -  265
  200     H        1s       266 -  267
  201     H        2px      268 +  269
  202     H        2pz      272 -  273
  203     H        2px      274 +  275
  204     H        2pz      278 -  279
  205     H        2px      283
  206     H        2px      286


  Symmetry  B2 ( 3)

  207     C        2py        7
  208     C        2py       10
  209     C        2py       13
  210     C        2py       16
  211     C        3d1-      19
  212     C        3d1-      24
  213     C        2py       40 +   41
  214     C        2py       46 +   47
  215     C        2py       52 +   53
  216     C        2py       58 +   59
  217     C        3d2-      62 -   63
  218     C        3d1-      64 +   65
  219     C        3d2-      72 -   73
  220     C        3d1-      74 +   75
  221     C        2py       94 +   95
  222     C        2py      100 +  101
  223     C        2py      106 +  107
  224     C        2py      112 +  113
  225     C        3d2-     116 -  117
  226     C        3d1-     118 +  119
  227     C        3d2-     126 -  127
  228     C        3d1-     128 +  129
  229     C        2py      142
  230     C        2py      145
  231     C        2py      148
  232     C        2py      151
  233     C        3d1-     154
  234     C        3d1-     159
  235     N        2py      169
  236     N        2py      172
  237     N        2py      175
  238     N        2py      178
  239     N        3d1-     181
  240     N        3d1-     186
  241     O        2py      202 +  203
  242     O        2py      208 +  209
  243     O        2py      214 +  215
  244     O        2py      220 +  221
  245     O        3d2-     224 -  225
  246     O        3d1-     226 +  227
  247     O        3d2-     234 -  235
  248     O        3d1-     236 +  237
  249     H        2py      252 +  253
  250     H        2py      258 +  259
  251     H        2py      270 +  271
  252     H        2py      276 +  277
  253     H        2py      284
  254     H        2py      287


  Symmetry  A2 ( 4)

  255     C        3d2-      18
  256     C        3d2-      23
  257     C        2py       40 -   41
  258     C        2py       46 -   47
  259     C        2py       52 -   53
  260     C        2py       58 -   59
  261     C        3d2-      62 +   63
  262     C        3d1-      64 -   65
  263     C        3d2-      72 +   73
  264     C        3d1-      74 -   75
  265     C        2py       94 -   95
  266     C        2py      100 -  101
  267     C        2py      106 -  107
  268     C        2py      112 -  113
  269     C        3d2-     116 +  117
  270     C        3d1-     118 -  119
  271     C        3d2-     126 +  127
  272     C        3d1-     128 -  129
  273     C        3d2-     153
  274     C        3d2-     158
  275     N        3d2-     180
  276     N        3d2-     185
  277     O        2py      202 -  203
  278     O        2py      208 -  209
  279     O        2py      214 -  215
  280     O        2py      220 -  221
  281     O        3d2-     224 +  225
  282     O        3d1-     226 -  227
  283     O        3d2-     234 +  235
  284     O        3d1-     236 -  237
  285     H        2py      252 -  253
  286     H        2py      258 -  259
  287     H        2py      270 -  271
  288     H        2py      276 -  277

  Symmetries of electric field:  B1 (2)  B2 (3)  A1 (1)

  Symmetries of magnetic field:  B2 (3)  B1 (2)  A2 (4)


                     .---------------------------------------.
                     | Starting in Integral Section (HERMIT) |
                     `---------------------------------------'



 ***************************************************************************************
 ****************** Output from **INTEGRALS input processing (HERMIT) ******************
 ***************************************************************************************


 - Using defaults, no **INTEGRALS input found

 Default print level:        1

 Calculation of one- and two-electron Hamiltonian integrals.

 Center of mass  (bohr):      0.000000000000      0.000000000000     -0.365861416539
 Operator center (bohr):      0.000000000000      0.000000000000      0.000000000000
 Gauge origin    (bohr):      0.000000000000      0.000000000000      0.000000000000
 Dipole origin   (bohr):      0.000000000000      0.000000000000      0.000000000000


     ************************************************************************
     ************************** Output from HERINT **************************
     ************************************************************************



                      Nuclear contribution to dipole moments
                      --------------------------------------

                 au               Debye          C m (/(10**-30)

      z    -31.38307860       -79.76782416      -266.07682091



 Threshold for neglecting two-electron integrals:  1.00D-12
 HERMIT - Number of two-electron integrals written:   203224865 ( 23.5% )
 HERMIT - Megabytes written:                           3102.266

  Time used in TWOINT     is      36.70 seconds
  Total CPU  time used in HERMIT:  36.98 seconds
  Total wall time used in HERMIT:  39.22 seconds


                        .----------------------------------.
                        | End of Integral Section (HERMIT) |
                        `----------------------------------'



                   .--------------------------------------------.
                   | Starting in Wave Function Section (SIRIUS) |
                   `--------------------------------------------'


 *** Output from Huckel module :

     Using EWMO model:          F
     Using EHT  model:          T
     Number of Huckel orbitals each symmetry:   24   17    6    3

 Huckel EHT eigenvalues for symmetry :  1
          -20.694949     -15.704697     -11.413522     -11.393995     -11.376468
          -11.362318      -1.737816      -1.550787      -1.194753      -0.945269
           -0.818648      -0.779912      -0.643968      -0.590915      -0.496331
           -0.429836      -0.332567      -0.247606      -0.225211      -0.215742
           -0.206731      -0.178899      -0.166799      -0.161016

 Huckel EHT eigenvalues for symmetry :  2
          -20.699429     -11.395207     -11.377111      -1.396317      -1.202783
           -0.877491      -0.648185      -0.570595      -0.527553      -0.479508
           -0.416313      -0.275973      -0.213734      -0.203533      -0.177547
           -0.166345      -0.164322

 Huckel EHT eigenvalues for symmetry :  3
           -0.796649      -0.670163      -0.467503      -0.386075      -0.282204
           -0.237202

 Huckel EHT eigenvalues for symmetry :  4
           -0.593767      -0.459667      -0.289271

INFO: no P-SUPMAT because more than 255 basis functions

 **********************************************************************
 *SIRIUS* a direct, restricted step, second order MCSCF program       *
 **********************************************************************

 
     Date and time (Linux)  : Fri Jun 14 18:26:45 2019
     Host name              : Lab2-333-NPs                            

 Title lines from ".mol" input file:
      nitrobenzene                                                           
      Generated by the Dalton Input File Plugin for Avogadro                 

 Print level on unit LUPRI =   2 is   0
 Print level on unit LUW4  =   2 is   5

@    Restricted, closed shell Hartree-Fock calculation.

@    Time-dependent Hartree-Fock calculation (random phase approximation).

 Initial molecular orbitals are obtained according to
 ".MOSTART EHT   " input option

     Wave function specification
     ============================
@    Wave function type        --- HF ---
@    Number of closed shell electrons          64
@    Number of electrons in active shells       0
@    Total charge of the molecule               0

@    Spin multiplicity and 2 M_S                1         0
@    Total number of symmetries                 4 (point group: C2v)
@    Reference state symmetry                   1 (irrep name : A1 )

     Orbital specifications
     ======================
@    Abelian symmetry species          All |    1    2    3    4
@                                          |  A1   B1   B2   A2 
                                       --- |  ---  ---  ---  ---
@    Total number of orbitals          288 |  115   91   48   34
@    Number of basis functions         288 |  115   91   48   34

      ** Automatic occupation of RHF orbitals **

      -- Initial occupation of symmetries is determined from extended Huckel guess.           
      -- Initial occupation of symmetries is :
@    Occupied SCF orbitals              32 |   16   11    3    2

     Maximum number of Fock   iterations      0
     Maximum number of DIIS   iterations     60
     Maximum number of QC-SCF iterations     60
     Threshold for SCF convergence     1.00D-05

    INFORMATION: Switched to "new" integral transformation (from 1988 ;-) )
    because more than 255 basis functions.


 ***********************************************
 ***** DIIS acceleration of SCF iterations *****
 ***********************************************

 C1-DIIS algorithm; max error vectors =    8

 Automatic occupation of symmetries with  64 electrons.

 Iter     Total energy    Error norm  Delta(E)    SCF occupation
 -----------------------------------------------------------------------------
@  1  -432.243663612       6.45D+00  -4.32D+02    16  11   3   2
      Virial theorem: -V/T =      1.998904
@    MULPOP   C       0.42; C   _1  0.26; C   _2  0.26; C   _1  0.24; C   _2  0.24; C       0.34; N       1.30; O   _1 -1.04; O   _2 -1.04; H   _1 -0.21; 
@             H   _2 -0.21; H   _1 -0.19; H   _2 -0.19; H      -0.19; 
   1  Level shift: doubly occupied orbital energies shifted by -2.00D-01
 -----------------------------------------------------------------------------
@  2  -433.812619961       3.01D+00  -1.57D+00    16  11   3   2
      Virial theorem: -V/T =      2.002089
@    MULPOP   C       0.92; C   _1  0.41; C   _2  0.41; C   _1  0.28; C   _2  0.28; C       0.39; N       0.30; O   _1 -0.50; O   _2 -0.50; H   _1 -0.39; 
@             H   _2 -0.39; H   _1 -0.40; H   _2 -0.40; H      -0.40; 
   2  Level shift: doubly occupied orbital energies shifted by -1.00D-01
 -----------------------------------------------------------------------------
@  3  -434.201049104       7.27D-01  -3.88D-01    16  11   3   2
      Virial theorem: -V/T =      2.001278
@    MULPOP   C       1.65; C   _1  0.34; C   _2  0.34; C   _1  0.34; C   _2  0.34; C       0.33; N       0.67; O   _1 -0.89; O   _2 -0.89; H   _1 -0.45; 
@             H   _2 -0.45; H   _1 -0.45; H   _2 -0.45; H      -0.43; 
   3  Level shift: doubly occupied orbital energies shifted by -2.50D-02
 -----------------------------------------------------------------------------
@  4  -434.227594608       1.93D-01  -2.65D-02    16  11   3   2
      Virial theorem: -V/T =      2.003107
@    MULPOP   C       1.77; C   _1  0.30; C   _2  0.30; C   _1  0.40; C   _2  0.40; C       0.31; N       0.51; O   _1 -0.86; O   _2 -0.86; H   _1 -0.45; 
@             H   _2 -0.45; H   _1 -0.46; H   _2 -0.46; H      -0.45; 
   4  Level shift: doubly occupied orbital energies shifted by -1.25D-02
 -----------------------------------------------------------------------------
@  5  -434.230497944       5.78D-02  -2.90D-03    16  11   3   2
      Virial theorem: -V/T =      2.002538
@    MULPOP   C       1.81; C   _1  0.29; C   _2  0.29; C   _1  0.38; C   _2  0.38; C       0.28; N       0.50; O   _1 -0.86; O   _2 -0.86; H   _1 -0.44; 
@             H   _2 -0.44; H   _1 -0.45; H   _2 -0.45; H      -0.44; 
 -----------------------------------------------------------------------------
@  6  -434.230875037       1.64D-02  -3.77D-04    16  11   3   2
      Virial theorem: -V/T =      2.002446
@    MULPOP   C       1.82; C   _1  0.28; C   _2  0.28; C   _1  0.39; C   _2  0.39; C       0.28; N       0.48; O   _1 -0.86; O   _2 -0.86; H   _1 -0.43; 
@             H   _2 -0.43; H   _1 -0.45; H   _2 -0.45; H      -0.44; 
 -----------------------------------------------------------------------------
@  7  -434.230914093       6.80D-03  -3.91D-05    16  11   3   2
      Virial theorem: -V/T =      2.002484
@    MULPOP   C       1.83; C   _1  0.28; C   _2  0.28; C   _1  0.39; C   _2  0.39; C       0.28; N       0.48; O   _1 -0.86; O   _2 -0.86; H   _1 -0.43; 
@             H   _2 -0.43; H   _1 -0.45; H   _2 -0.45; H      -0.44; 
 -----------------------------------------------------------------------------
@  8  -434.230920362       2.39D-03  -6.27D-06    16  11   3   2
      Virial theorem: -V/T =      2.002471
@    MULPOP   C       1.84; C   _1  0.27; C   _2  0.27; C   _1  0.39; C   _2  0.39; C       0.28; N       0.48; O   _1 -0.86; O   _2 -0.86; H   _1 -0.43; 
@             H   _2 -0.43; H   _1 -0.45; H   _2 -0.45; H      -0.44; 
 -----------------------------------------------------------------------------
@  9  -434.230921092       7.73D-04  -7.30D-07    16  11   3   2
      Virial theorem: -V/T =      2.002467
@    MULPOP   C       1.84; C   _1  0.27; C   _2  0.27; C   _1  0.38; C   _2  0.38; C       0.28; N       0.48; O   _1 -0.86; O   _2 -0.86; H   _1 -0.43; 
@             H   _2 -0.43; H   _1 -0.45; H   _2 -0.45; H      -0.44; 
 -----------------------------------------------------------------------------
@ 10  -434.230921172       2.69D-04  -7.96D-08    16  11   3   2
      Virial theorem: -V/T =      2.002469
@    MULPOP   C       1.84; C   _1  0.27; C   _2  0.27; C   _1  0.38; C   _2  0.38; C       0.28; N       0.48; O   _1 -0.86; O   _2 -0.86; H   _1 -0.43; 
@             H   _2 -0.43; H   _1 -0.45; H   _2 -0.45; H      -0.44; 
 -----------------------------------------------------------------------------
@ 11  -434.230921187       1.06D-04  -1.47D-08    16  11   3   2
      Virial theorem: -V/T =      2.002469
@    MULPOP   C       1.84; C   _1  0.27; C   _2  0.27; C   _1  0.38; C   _2  0.38; C       0.28; N       0.48; O   _1 -0.86; O   _2 -0.86; H   _1 -0.43; 
@             H   _2 -0.43; H   _1 -0.45; H   _2 -0.45; H      -0.44; 
 -----------------------------------------------------------------------------
@ 12  -434.230921189       4.37D-05  -2.79D-09    16  11   3   2
      Virial theorem: -V/T =      2.002469
@    MULPOP   C       1.84; C   _1  0.27; C   _2  0.27; C   _1  0.39; C   _2  0.39; C       0.28; N       0.48; O   _1 -0.86; O   _2 -0.86; H   _1 -0.43; 
@             H   _2 -0.43; H   _1 -0.45; H   _2 -0.45; H      -0.44; 
 -----------------------------------------------------------------------------
@ 13  -434.230921190       2.45D-05  -4.02D-10    16  11   3   2
      Virial theorem: -V/T =      2.002468
@    MULPOP   C       1.84; C   _1  0.27; C   _2  0.27; C   _1  0.39; C   _2  0.39; C       0.28; N       0.48; O   _1 -0.86; O   _2 -0.86; H   _1 -0.43; 
@             H   _2 -0.43; H   _1 -0.45; H   _2 -0.45; H      -0.44; 
 -----------------------------------------------------------------------------
@ 14  -434.230921190       9.04D-06  -1.77D-10    16  11   3   2

@ *** DIIS converged in  14 iterations !
@     Converged SCF energy, gradient:   -434.230921189972    9.04D-06
    - total time used in SIRFCK :              0.00 seconds


 *** SCF orbital energy analysis ***

 Only the 20 lowest virtual orbital energies printed in each symmetry.

 Number of electrons :   64
 Orbital occupations :   16   11    3    2

 Sym       Hartree-Fock orbital energies

1 A1    -20.61573619   -15.86358407   -11.32441345   -11.28891080   -11.28391310
        -11.27560662    -1.59837848    -1.20054337    -1.09764285    -0.96692692
         -0.83381105    -0.78066019    -0.70916901    -0.65263592    -0.55502275
         -0.49906067     0.02619024     0.04389847     0.06226959     0.10462535
          0.13064943     0.13481430     0.15059185     0.15636011     0.17275859
          0.18051192     0.21541402     0.25790403     0.28782230     0.30007136
          0.31121628     0.33845954     0.34760488     0.35236951     0.37027842
          0.39758694

2 B1    -20.61578581   -11.28894714   -11.27570366    -1.39514411    -1.05444992
         -0.86537213    -0.72797175    -0.65692287    -0.62386168    -0.53227422
         -0.49479973     0.03570559     0.05962682     0.13042440     0.13371692
          0.15244873     0.17298755     0.18341612     0.21395754     0.26168908
          0.28878695     0.31461292     0.33416240     0.36223202     0.36726556
          0.39142241     0.42038003     0.43789795     0.46163581     0.56610097
          0.57494469

3 B2     -0.71271622    -0.53582530    -0.37875100     0.02796340     0.10671110
          0.12323957     0.13882930     0.18383470     0.19127353     0.24642151
          0.31837441     0.33976434     0.37184308     0.44399069     0.53300423
          0.58617506     0.64049736     0.71237537     0.78791292     0.83914230
          0.86860874     0.91757252     0.92611072

4 A2     -0.45438050    -0.36959272     0.08476354     0.13105809     0.18576979
          0.29800699     0.41143758     0.49022894     0.54569988     0.65758089
          0.73512088     0.89499642     0.89774852     0.94361855     1.03582636
          1.08495194     1.21662764     1.23668148     1.33785827     1.47994046
          1.66757422     1.68645436

    E(LUMO) :     0.02619024 au (symmetry 1)
  - E(HOMO) :    -0.36959272 au (symmetry 4)
  ------------------------------------------
    gap     :     0.39578296 au

 --- Writing SIRIFC interface file

 CPU and wall time for SCF :      76.344      76.372


                       .-----------------------------------.
                       | --- Final results from SIRIUS --- |
                       `-----------------------------------'


@    Spin multiplicity:           1
@    Spatial symmetry:            1 ( irrep  A1  in C2v )
@    Total charge of molecule:    0

@    Final HF energy:            -434.230921189972                 
@    Nuclear repulsion:           410.144923220972
@    Electronic energy:          -844.375844410944

@    Final gradient norm:           0.000009040644

 
     Date and time (Linux)  : Fri Jun 14 18:28:02 2019
     Host name              : Lab2-333-NPs                            

File label for MO orbitals:  14Jun19   FOCKDIIS

 (Only coefficients > 0.0100 are printed.)

 Molecular orbitals for symmetry species 1  (A1 )
 ------------------------------------------------

    Orbital         7        8        9       10       11       12       13
   1 C   :1s    -0.0059  -0.0162  -0.0155   0.0031  -0.0080  -0.0006   0.0016
   2 C   :1s     0.0909   0.4339   0.4074  -0.0507   0.2978   0.1333  -0.0079
   3 C   :1s     0.2393  -0.1192   0.2093   0.1326  -0.0580   0.3034  -0.1467
   5 C   :1s     0.1648  -0.5897  -0.2851  -0.3125   0.0174   0.3234  -1.0450
   6 C   :2pz    0.0614  -0.0544   0.1154   0.2973  -0.0880  -0.2900   0.0926
   7 C   :2pz   -0.2478  -0.0095  -0.1629  -0.1040   0.0241   0.0703   0.0522
   9 C   :2pz    0.0671   0.1142  -0.1055   0.0248  -0.0213   0.0530   0.1285
  10 C   :3d0    0.0144   0.0069   0.0150   0.0268  -0.0089  -0.0150   0.0275
  11 C   :3d2+  -0.0003   0.0121   0.0069  -0.0128   0.0101   0.0057  -0.0144
  12 C   :3d0   -0.1823  -0.0579  -0.0802  -0.1123   0.0386  -0.0286   0.0164
  13 C   :3d2+   0.0825   0.0477   0.0458   0.0505  -0.0041   0.0098  -0.0125
  14 C   :1s    -0.0016  -0.0112  -0.0013   0.0106   0.0027  -0.0003   0.0047
  15 C   :1s     0.0132   0.3531   0.0604  -0.2964  -0.1038  -0.0116  -0.1611
  16 C   :1s    -0.0669  -0.1756   0.0215  -0.0772  -0.0691   0.0679   0.0162
  18 C   :1s    -0.0570   0.3737  -0.0355   0.2760  -0.0367  -0.1515   0.8679
  19 C   :2px    0.0079   0.0932   0.0597  -0.0309   0.1778   0.2300   0.1561
  20 C   :2pz    0.0096  -0.0278   0.1281   0.0199   0.1804   0.0122  -0.2273
  21 C   :2px   -0.0638  -0.0372  -0.0794  -0.0322  -0.0859  -0.1100  -0.0555
  22 C   :2pz   -0.2485   0.0144  -0.2366  -0.0130   0.0563  -0.1740   0.2293
  25 C   :2px   -0.0243   0.0592   0.0474   0.0170  -0.0126  -0.0536   0.1453
  26 C   :2pz   -0.0372  -0.0331   0.0846  -0.0292   0.0164  -0.0237  -0.0746
  27 C   :3d0    0.0016   0.0052  -0.0073   0.0029  -0.0140  -0.0094   0.0132
  28 C   :3d1+   0.0027   0.0060   0.0122   0.0001   0.0038   0.0002   0.0056
  30 C   :3d0    0.0391  -0.0264   0.0282  -0.0471  -0.0129   0.0422  -0.0631
  31 C   :3d1+  -0.0467  -0.0037  -0.0454  -0.0604   0.0014  -0.0608  -0.0277
  32 C   :3d2+  -0.0094   0.0123  -0.0237   0.0226   0.0014  -0.0155   0.0354
  33 C   :1s     0.0002  -0.0111   0.0106  -0.0024   0.0048   0.0051  -0.0028
  34 C   :1s     0.0030   0.2969  -0.2895   0.0438  -0.1968  -0.1141   0.1648
  35 C   :1s    -0.1538  -0.0272  -0.0147   0.0021   0.0407  -0.1409   0.1757
  37 C   :1s     0.0605  -0.2210   0.0146  -0.1486   0.2138   0.2650  -0.8436
  38 C   :2px   -0.0003   0.0707  -0.0874   0.0870   0.1630   0.1773   0.1103
  39 C   :2pz   -0.0000   0.0513   0.0481  -0.1752  -0.1396   0.0308   0.1004
  40 C   :2px    0.0052  -0.0103   0.0642  -0.0761  -0.1262  -0.1227  -0.0064
  41 C   :2pz   -0.1201   0.0274  -0.1708   0.1524   0.1665  -0.1312   0.0490
  44 C   :2px    0.0240  -0.0292  -0.0583   0.0064   0.0536   0.0667  -0.1565
  45 C   :2pz   -0.0015  -0.0328   0.0479  -0.0543  -0.0192   0.0029  -0.0773
  46 C   :3d0   -0.0003   0.0071   0.0020  -0.0122  -0.0074  -0.0016  -0.0067
  47 C   :3d1+   0.0014  -0.0022   0.0104  -0.0074  -0.0051  -0.0002   0.0111
  49 C   :3d0   -0.0350   0.0171  -0.0467   0.0239   0.0220  -0.0376   0.0397
  50 C   :3d1+  -0.0033  -0.0091  -0.0219   0.0020   0.0564   0.0132  -0.0332
  51 C   :3d2+   0.0168  -0.0038   0.0290  -0.0134  -0.0112   0.0191  -0.0226
  52 C   :1s    -0.0002  -0.0095   0.0160  -0.0130  -0.0070  -0.0005   0.0043
  53 C   :1s     0.0003   0.2910  -0.4232   0.3933   0.2930   0.0821  -0.1716
  54 C   :1s    -0.0866  -0.0688  -0.1050   0.0485   0.1978  -0.0146   0.0519
  56 C   :1s    -0.1080   0.1826   0.2155  -0.0213  -0.3733  -0.3752   0.9069
  57 C   :2pz   -0.0000   0.0836  -0.0710  -0.0185  -0.0680   0.0737   0.4131
  58 C   :2pz   -0.0200  -0.0311  -0.0815   0.0920   0.1142  -0.0077  -0.1683
  60 C   :2pz   -0.0187   0.0476   0.0070   0.0313  -0.0442  -0.0775   0.1605
  61 C   :3d0   -0.0007   0.0008   0.0002  -0.0030   0.0037   0.0045  -0.0114
  62 C   :3d2+   0.0008   0.0088  -0.0128   0.0109   0.0024  -0.0016   0.0064
  63 C   :3d0   -0.0003  -0.0020   0.0246  -0.0317  -0.0630  -0.0109   0.0884
  64 C   :3d2+   0.0063  -0.0006  -0.0155   0.0208   0.0327   0.0114  -0.0513
  66 N   :1s     0.6773   0.0759   0.2320   0.4034  -0.3462   0.1476   0.0030
  67 N   :1s    -0.1269   0.0497   0.1315   0.1387  -0.0337  -0.0530  -0.0106
  69 N   :1s    -0.1582   0.1167   0.2256   0.1427  -0.0432  -0.1059   0.1434
  70 N   :2pz    0.1196  -0.1677  -0.3067  -0.2516  -0.1648   0.4240  -0.2387
  71 N   :2pz   -0.2166   0.0115   0.0445   0.0322   0.0344  -0.0716   0.0387
  73 N   :2pz   -0.0392  -0.0995  -0.0054  -0.0170   0.0015   0.0261  -0.0801
  74 N   :3d0   -0.0022   0.0079   0.0118   0.0063   0.0006   0.0056  -0.0047
  75 N   :3d2+   0.0246  -0.0034  -0.0037  -0.0000  -0.0041   0.0012  -0.0003
  76 N   :3d0    0.0020   0.0233   0.0137  -0.0076   0.0313  -0.0358   0.0176
  77 N   :3d2+  -0.0429  -0.0179   0.0008   0.0177  -0.0222   0.0139  -0.0040
  79 O   :1s     0.4237  -0.1159  -0.2093  -0.2687   0.2687  -0.1922   0.0740
  80 O   :1s     0.0530   0.0133  -0.0278  -0.0660   0.0771  -0.0514   0.0251
  82 O   :1s     0.0850  -0.0006  -0.0512  -0.0409   0.0562  -0.0293   0.0239
  83 O   :2px    0.1387  -0.0190  -0.0091   0.0721  -0.2421   0.3112  -0.1437
  84 O   :2pz   -0.0672  -0.0234  -0.0649  -0.1037   0.0544   0.0809  -0.0543
  85 O   :2px    0.0239  -0.0016  -0.0170  -0.0301   0.0317  -0.0196   0.0074
  86 O   :2pz   -0.0067  -0.0042   0.0157   0.0301  -0.0299   0.0181  -0.0096
  89 O   :2px    0.0121   0.0084  -0.0071  -0.0017   0.0025  -0.0006   0.0029
  90 O   :2pz    0.0001   0.0180   0.0020   0.0001  -0.0065   0.0001   0.0070
  93 O   :3d2+   0.0104  -0.0015  -0.0017   0.0014  -0.0080   0.0104  -0.0048
  94 O   :3d0   -0.0048   0.0029   0.0032   0.0005   0.0069  -0.0139   0.0054
  96 O   :3d2+   0.0136  -0.0034  -0.0054  -0.0022  -0.0061   0.0108  -0.0046
  97 H   :1s     0.0059   0.0812   0.0313  -0.1125  -0.0999  -0.1725  -0.3035
  98 H   :1s     0.0272  -0.1073  -0.0179  -0.0734  -0.0055   0.0749  -0.1005
  99 H   :1s    -0.0007   0.0186  -0.0029   0.0113   0.0002  -0.0175   0.0350
 100 H   :2px    0.0010   0.0075   0.0042  -0.0058  -0.0033  -0.0068  -0.0121
 102 H   :2px    0.0094  -0.0145  -0.0081  -0.0195  -0.0157   0.0003  -0.0402
 103 H   :2pz   -0.0130   0.0187  -0.0105   0.0140  -0.0030  -0.0208   0.0384
 104 H   :1s    -0.0011   0.0665  -0.0907   0.0288  -0.1549  -0.2047  -0.0340
 105 H   :1s    -0.0444  -0.0023   0.0286   0.0183   0.0001  -0.0503   0.1615
 106 H   :1s     0.0004  -0.0124  -0.0019  -0.0071   0.0102   0.0127  -0.0531
 109 H   :2px   -0.0052   0.0029   0.0084   0.0006  -0.0188  -0.0238   0.0304
 110 H   :2pz   -0.0100   0.0030  -0.0105   0.0132   0.0091  -0.0177   0.0194
 111 H   :1s    -0.0002   0.0646  -0.1347   0.1954   0.2046  -0.0183  -0.4702
 112 H   :1s     0.0136  -0.0647  -0.0172  -0.0027   0.0683   0.0670  -0.0838
 113 H   :1s    -0.0076   0.0120   0.0151   0.0030  -0.0197  -0.0364   0.0394
 114 H   :2pz    0.0005   0.0061  -0.0103   0.0135   0.0109  -0.0006  -0.0198
 115 H   :2pz    0.0063  -0.0136  -0.0132   0.0145   0.0286   0.0177  -0.0573

    Orbital        14       15       16       17       18       19       20
   1 C   :1s     0.0029  -0.0018  -0.0037   0.0086  -0.0070   0.0057   0.0245
   2 C   :1s    -0.2779   0.0909   0.0668   0.0150  -0.0239   0.0067   0.0530
   3 C   :1s    -0.1351   0.1652   0.1328  -0.8601   0.6837  -0.8738  -2.7579
   5 C   :1s     0.7041  -0.1877   0.2973  -0.8265   5.7830 -25.3700 -24.6457
   6 C   :2pz    0.1328   0.0161   0.3390   0.0024   0.0215  -0.0089   0.0350
   7 C   :2pz   -0.0037  -0.0815  -0.2085   0.1312   0.1599  -0.3888   0.5742
   9 C   :2pz   -0.0935  -0.1281  -0.1331   0.1292  -3.0456   4.8046  11.4766
  10 C   :3d0    0.0003  -0.0212   0.0225  -0.0006   0.0016  -0.0045  -0.0142
  11 C   :3d2+   0.0015   0.0110  -0.0083  -0.0022   0.0044  -0.0026  -0.0065
  12 C   :3d0    0.0179  -0.0459  -0.0326   0.2479  -0.2288   0.3427   0.7450
  13 C   :3d2+  -0.0002   0.0251   0.0217  -0.1954   0.1974  -0.2725  -0.5995
  15 C   :1s     0.1330  -0.0602   0.0084  -0.0068   0.0596  -0.0530  -0.0085
  16 C   :1s     0.0148  -0.0634  -0.0880  -0.2478  -0.2287   0.5691   0.2043
  18 C   :1s    -0.8554   0.0321  -0.3814  -3.5432  -5.1979  26.2198  15.2712
  19 C   :2px   -0.2399  -0.0931  -0.0906   0.0108  -0.0301   0.0124  -0.0465
  20 C   :2pz   -0.0166   0.3363  -0.1145  -0.0072   0.0256  -0.0045   0.0205
  21 C   :2px    0.0732   0.0037  -0.0466   0.2708  -0.1614  -0.5010   0.2078
  22 C   :2pz   -0.0339  -0.1711  -0.0485   0.5550  -0.0927   0.4814   2.1490
  25 C   :2px   -0.1081   0.0599  -0.0454  -0.3054  -1.4968   6.7126   3.3774
  26 C   :2pz    0.1320   0.0635   0.0774   1.1237   3.2274  -5.5052  -1.6855
  27 C   :3d0    0.0037  -0.0113   0.0081  -0.0019   0.0011  -0.0005  -0.0068
  28 C   :3d1+  -0.0246  -0.0039   0.0012  -0.0010   0.0012  -0.0012   0.0055
  29 C   :3d2+  -0.0025   0.0065  -0.0072   0.0016  -0.0015  -0.0015  -0.0111
  30 C   :3d0    0.0028   0.0382   0.0229  -0.0825  -0.1086   0.0869  -0.1327
  31 C   :3d1+   0.0852  -0.0036   0.0138   0.1702  -0.1951   0.4462   0.4762
  32 C   :3d2+  -0.0078  -0.0207  -0.0161  -0.0066   0.0430   0.0096   0.1627
  33 C   :1s     0.0024  -0.0007   0.0004   0.0015   0.0021   0.0068  -0.0123
  34 C   :1s    -0.1208   0.0387   0.0139  -0.0433   0.0346   0.0506  -0.0386
  35 C   :1s     0.0358  -0.0605  -0.0466   0.0632  -0.2075  -0.4586   1.1122
  37 C   :1s     0.9372  -0.1785   0.3784   1.9343   0.5760 -30.5948  -0.2874
  38 C   :2px    0.3133   0.0771   0.0259   0.0444  -0.0003  -0.0257  -0.0368
  39 C   :2pz    0.1567  -0.3392   0.1215   0.0226  -0.0107  -0.0189  -0.0203
  40 C   :2px   -0.0985   0.0392  -0.0093   0.0833  -0.3737   0.5821   0.1362
  41 C   :2pz   -0.0748  -0.0381  -0.0369   0.6030   0.4256   0.6295   1.1968
  44 C   :2px    0.1156  -0.0796   0.0396   0.8210  -2.2157  -8.8926   2.8032
  45 C   :2pz    0.1194   0.0146   0.0463   1.3212   0.7969  -6.1586   0.1435
  46 C   :3d0    0.0024  -0.0256   0.0057   0.0006   0.0027   0.0018   0.0023
  47 C   :3d1+  -0.0232   0.0003  -0.0053   0.0043   0.0011  -0.0018  -0.0011
  48 C   :3d2+  -0.0009   0.0143  -0.0032   0.0007  -0.0035  -0.0015  -0.0091
  49 C   :3d0   -0.0328   0.0236  -0.0119   0.0424  -0.1062  -0.2417   0.4378
  50 C   :3d1+   0.0957  -0.0223   0.0313   0.0669   0.1068   0.4704   0.1189
  51 C   :3d2+   0.0236  -0.0110   0.0078  -0.0642   0.0740   0.0210  -0.1668
  53 C   :1s     0.1869   0.0405   0.0177  -0.0511  -0.0708  -0.0750   0.0138
  54 C   :1s     0.0672  -0.0219   0.0220   0.1307   0.5849   0.8773   0.6732
  56 C   :1s    -0.7325   0.4073  -0.3065  -1.9336   7.8133  28.7263  -6.0617
  57 C   :2pz    0.1825   0.4649  -0.0468   0.0687   0.0494   0.0163  -0.0487
  58 C   :2pz   -0.0465  -0.1534   0.0222   0.3513   0.0909  -0.5902   0.3616
  60 C   :2pz   -0.1706   0.0189  -0.0705   0.7705   4.4673  11.3195  -1.3218
  61 C   :3d0    0.0126  -0.0327   0.0083   0.0048   0.0019   0.0018  -0.0104
  62 C   :3d2+  -0.0075   0.0183  -0.0046  -0.0016   0.0012  -0.0002  -0.0042
  63 C   :3d0   -0.0320   0.0883  -0.0214  -0.1865  -0.3145  -0.4781  -0.0362
  64 C   :3d2+   0.0179  -0.0530   0.0136   0.0781   0.2952   0.3461  -0.0453
  66 N   :1s     0.0591  -0.0617   0.0215   0.0048  -0.0183   0.0021  -0.0485
  67 N   :1s    -0.0048   0.0471   0.0740  -0.0588   0.1725  -0.1408  -0.3631
  69 N   :1s    -0.1091   0.1706   0.0630  -0.0314   0.6056   1.5349  -5.7005
  70 N   :2pz   -0.0563   0.0815  -0.2919  -0.0056  -0.0087   0.0246   0.0375
  71 N   :2pz    0.0287  -0.0227  -0.0496   0.0324   0.0929  -0.0687   0.1473
  73 N   :2pz   -0.0086   0.0359  -0.0077  -0.4998   0.8616  -1.2059  -2.5450
  74 N   :3d0   -0.0093   0.0138   0.0497  -0.0000   0.0008  -0.0008  -0.0025
  75 N   :3d2+   0.0051  -0.0067  -0.0358  -0.0018   0.0052  -0.0049   0.0001
  76 N   :3d0    0.0012  -0.0046   0.0185   0.0029  -0.0317   0.0253   0.0267
  77 N   :3d2+   0.0011   0.0005  -0.0243   0.0298   0.0207  -0.0072  -0.0151
  79 O   :1s    -0.0166  -0.0145   0.0101  -0.0067   0.0360  -0.0415  -0.0151
  80 O   :1s    -0.0110  -0.0064   0.0476  -0.0347  -0.0290  -0.0045  -0.0129
  82 O   :1s     0.0045  -0.0513   0.0152   0.0288  -0.4789   0.2627   1.3543
  83 O   :2px   -0.0412   0.0742   0.0707   0.0001   0.0009   0.0015  -0.0021
  84 O   :2pz   -0.1170   0.1489   0.5842   0.0060   0.0018  -0.0108  -0.0241
  85 O   :2px   -0.0063   0.0012   0.0317  -0.0201  -0.0388   0.0198  -0.0203
  86 O   :2pz    0.0001   0.0085   0.0172   0.0080   0.0194  -0.0121  -0.0358
  89 O   :2px    0.0062  -0.0079   0.0147   0.0874  -0.1496   0.1137   0.6737
  90 O   :2pz    0.0056   0.0055   0.0397   0.1314   0.0338  -0.0583   0.1768
  94 O   :3d0    0.0049  -0.0044  -0.0114  -0.0049   0.0066  -0.0017   0.0022
  95 O   :3d1+  -0.0024   0.0033   0.0095   0.0028   0.0115  -0.0085   0.0006
  96 O   :3d2+  -0.0023   0.0022   0.0037  -0.0030  -0.0074   0.0056  -0.0106
  97 H   :1s     0.2721   0.2157  -0.0010   0.0080   0.0108  -0.0136  -0.0434
  98 H   :1s     0.0928   0.0188   0.0417   0.5203  -0.4357  -0.4578  -0.9892
  99 H   :1s    -0.0393   0.0132  -0.0100  -0.3848  -3.0507   6.0416  -0.5693
 102 H   :2px    0.0440   0.0155   0.0069   0.1146  -0.0372  -0.1293  -0.2358
 103 H   :2pz   -0.0071  -0.0272  -0.0080  -0.0428  -0.0115   0.1577   0.2184
 104 H   :1s    -0.4108   0.1425  -0.0924  -0.0064   0.0022   0.0077  -0.0153
 105 H   :1s    -0.1183   0.0533  -0.0598   0.5144  -0.4642   0.5710   0.4990
 106 H   :1s     0.0416  -0.0062   0.0118   1.8746  -1.5780  -9.0987   3.4355
 107 H   :2px   -0.0127   0.0070  -0.0029  -0.0026   0.0045   0.0073   0.0013
 109 H   :2px   -0.0532   0.0183  -0.0182   0.0978  -0.0204   0.2208   0.0047
 110 H   :2pz   -0.0270   0.0265  -0.0085   0.0333  -0.0942   0.1186   0.0849
 111 H   :1s    -0.0616  -0.4950   0.0731  -0.0089  -0.0147  -0.0124  -0.0183
 112 H   :1s     0.1167  -0.1405   0.0578   0.9943   0.4195  -0.1108   0.3613
 113 H   :1s    -0.0438  -0.0127  -0.0124   2.1402   5.7776   9.2657  -2.7309
 114 H   :2pz   -0.0022  -0.0136   0.0016  -0.0059  -0.0075  -0.0083   0.0052
 115 H   :2pz    0.0249  -0.0734   0.0207   0.1860  -0.0227  -0.1513   0.0508

    Orbital        21       22       23       24       25       26
   1 C   :1s    -0.0161  -0.0084   0.0295   0.0052   0.0152   0.0111
   2 C   :1s    -0.0245  -0.0657   0.1684   0.0352   0.0729   0.0829
   3 C   :1s    -0.5199  -0.0693  -2.1990  -2.5080  -0.3538  -2.2628
   5 C   :1s     6.9158  -5.5345  -8.7109   2.4103 -65.8017  36.2729
   6 C   :2pz    0.0395   0.0042   0.0077  -0.0568   0.0535   0.0070
   7 C   :2pz    0.0962  -0.4391  -0.2887   0.9805  -1.8560   1.3586
   9 C   :2pz    5.3008   5.5168  -2.3275   6.8787   2.1156  12.9966
  10 C   :3d0   -0.0032  -0.0029  -0.0156   0.0042  -0.0099   0.0012
  11 C   :3d2+  -0.0081   0.0050   0.0174  -0.0041   0.0183   0.0063
  12 C   :3d0   -1.1686  -0.0890   0.6593   0.5091   0.4929   1.0093
  13 C   :3d2+   0.8841   0.1744  -0.5461  -0.0791  -0.6180  -0.5083
  14 C   :1s     0.0055  -0.0129   0.0172   0.0075  -0.0116   0.0014
  15 C   :1s     0.0141  -0.0126   0.1681   0.0407   0.0443   0.0520
  16 C   :1s    -1.7079   0.0244  -0.8514  -0.7764   1.5884   1.1329
  18 C   :1s     5.6365  25.6071  -6.0889  25.1906  43.2887  -5.6541
  19 C   :2px   -0.0301  -0.0135  -0.0298   0.0259  -0.0540  -0.0355
  20 C   :2pz    0.0181   0.0284   0.0295  -0.0218   0.0343   0.0460
  21 C   :2px   -0.0857  -0.4811   0.7418  -0.1235  -0.9516   0.9418
  22 C   :2pz    0.2159  -0.1434   1.1481   2.0223  -0.2851   0.7315
  25 C   :2px   -3.3740   0.2943  -0.4536  -1.1557  16.7519  -3.6834
  26 C   :2pz   -6.4790 -10.0548   2.4516  -9.7330  -3.2624 -12.2625
  27 C   :3d0   -0.0063   0.0018   0.0118  -0.0073   0.0073   0.0098
  29 C   :3d2+  -0.0114  -0.0041   0.0116   0.0006   0.0072   0.0077
  30 C   :3d0   -0.7035   0.1008   0.0172  -0.6048   0.6602  -0.1353
  31 C   :3d1+  -0.3014  -0.0065   0.5412   0.4289   0.8064   0.5253
  32 C   :3d2+   0.4224   0.1243  -0.1058   0.3876  -0.3037   0.0039
  33 C   :1s    -0.0045  -0.0032   0.0076   0.0109   0.0141   0.0001
  34 C   :1s    -0.0155  -0.0454   0.1608   0.0021   0.0096   0.0378
  35 C   :1s     0.6877   0.2571   0.2372   0.2221  -1.6297   0.8614
  37 C   :1s    -6.4540 -12.7543  13.1419 -40.1831 -47.6123  -8.4942
  38 C   :2px   -0.0571   0.0427  -0.0759  -0.0130   0.0423  -0.0127
  39 C   :2pz   -0.0248   0.0203  -0.0493   0.0125   0.0294  -0.0129
  40 C   :2px   -0.2935   0.2174   0.3656  -0.0056   1.3590   1.0068
  41 C   :2pz    1.1583  -0.7450   0.8295   2.6369  -0.1411  -0.1984
  44 C   :2px    4.2029   4.6369   6.2946  -5.1073 -18.3247   2.7398
  45 C   :2pz   -3.5665 -10.0439   1.2548  -9.7740  -6.2981   2.3340
  46 C   :3d0   -0.0002  -0.0082   0.0158   0.0113   0.0046   0.0010
  47 C   :3d1+  -0.0058   0.0044  -0.0032  -0.0024  -0.0107  -0.0021
  48 C   :3d2+  -0.0106   0.0040   0.0100   0.0012   0.0056   0.0154
  49 C   :3d0    0.3560   0.3940   0.3975   0.2252  -0.7089  -0.1774
  50 C   :3d1+  -0.0317  -0.0501   0.0638   0.5607   0.7318  -0.3683
  51 C   :3d2+  -0.1898  -0.2583  -0.3185  -0.3299   0.2179   0.0058
  52 C   :1s    -0.0012   0.0089   0.0188  -0.0194  -0.0078   0.0126
  53 C   :1s    -0.0033  -0.0818   0.1284   0.0284   0.0482   0.0492
  54 C   :1s     0.7781   0.0569   0.0395   3.0211   0.3039  -1.6692
  56 C   :1s    -8.6948 -19.2662 -23.9094  27.9271  56.5334   0.4827
  57 C   :2pz   -0.0667   0.1110  -0.0730  -0.1244  -0.0016   0.0840
  58 C   :2pz    0.7458   0.3056   1.2651   0.7521  -1.5835  -0.8881
  60 C   :2pz    2.7339  -2.9970  -4.7866  17.9862  15.1192  -4.7494
  61 C   :3d0   -0.0096  -0.0004  -0.0049   0.0100   0.0069   0.0006
  62 C   :3d2+  -0.0074   0.0002   0.0264   0.0019  -0.0015  -0.0026
  63 C   :3d0   -0.1538   0.5129  -0.0463  -0.8376  -0.5881   0.3086
  64 C   :3d2+   0.0241  -0.5809  -0.2163   0.5332   0.5043  -0.2435
  65 N   :1s     0.0120   0.0004  -0.0095  -0.0006  -0.0038   0.0145
  66 N   :1s     0.0098   0.0319  -0.0267   0.0407  -0.0381   0.0024
  67 N   :1s    -0.3451   0.1691   0.0868   0.2156  -0.2549  -0.9477
  69 N   :1s    -5.4265   2.8336   7.2912   1.9368   8.8734 -19.2395
  70 N   :2pz    0.0062  -0.0212   0.0255  -0.0203  -0.0222  -0.0297
  71 N   :2pz   -0.7656  -0.0649  -0.0208   0.5401  -0.5534   0.3786
  73 N   :2pz   -3.4118   0.1641  -1.6706   1.8249  -3.6604   2.6019
  75 N   :3d2+  -0.0070   0.0050   0.0046   0.0124  -0.0020   0.0060
  76 N   :3d0    0.1283   0.0860   0.0557   0.0372   0.0607   0.0028
  77 N   :3d2+  -0.2346  -0.0579   0.1128   0.0573   0.0163  -0.0271
  79 O   :1s     0.0377  -0.0084   0.0117  -0.0114   0.0685   0.0382
  80 O   :1s     0.3684   0.0561  -0.0886  -0.1545   0.1057   0.0266
  82 O   :1s     3.1568  -0.7078  -1.2366  -2.1681   1.0448   2.9256
  83 O   :2px    0.0062  -0.0015   0.0118  -0.0073   0.0029  -0.0102
  84 O   :2pz    0.0330  -0.0147  -0.0131  -0.0521   0.0100  -0.0516
  85 O   :2px    0.2848   0.0002  -0.0770  -0.1979   0.1373   0.0466
  86 O   :2pz   -0.1647  -0.0149   0.0394   0.0526  -0.0350  -0.0456
  89 O   :2px    0.8557  -0.4541  -0.2689  -0.8396   0.2494   0.5989
  90 O   :2pz    0.0889  -0.1003   0.5727   0.0496   0.0092  -1.0957
  94 O   :3d0   -0.0060   0.0137  -0.0149   0.0279  -0.0183   0.0080
  95 O   :3d1+  -0.0528  -0.0062   0.0101   0.0300  -0.0306  -0.0219
  96 O   :3d2+   0.0623  -0.0102  -0.0130  -0.0587   0.0423  -0.0088
  97 H   :1s    -0.0473   0.0279   0.0324  -0.0038   0.0066   0.0156
  98 H   :1s    -1.4049  -1.2410   1.9860  -1.3817   0.5460   1.3594
  99 H   :1s     1.3939   3.9852   0.7048   1.0803   8.5625   1.1157
 100 H   :2px    0.0107   0.0025   0.0061   0.0008  -0.0025   0.0029
 102 H   :2px   -0.1501  -0.2620   0.4291  -0.1253  -0.0393   0.2879
 103 H   :2pz    0.3208   0.1844  -0.1951   0.3228  -0.0087   0.1028
 104 H   :1s    -0.0400  -0.0064   0.0358   0.0019   0.0042   0.0189
 105 H   :1s     0.8093   0.5167   1.5524   1.7561   0.5899   1.5674
 106 H   :1s    -0.5165  -1.2270   4.7601  -5.8464 -10.1454   0.6151
 109 H   :2px    0.0948  -0.0894   0.2169   0.3284   0.3071   0.3510
 110 H   :2pz    0.1098   0.2797   0.3103   0.2909   0.1291  -0.0742
 111 H   :1s    -0.0332  -0.0612   0.0180   0.0308   0.0078  -0.0301
 112 H   :1s     1.2196  -0.3572   2.5095   1.8356  -1.0912  -1.1400
 113 H   :1s     1.1859  -6.7285  -2.8484   9.6840   9.4333  -2.4972
 114 H   :2pz    0.0061  -0.0062   0.0118   0.0039  -0.0039  -0.0054
 115 H   :2pz    0.2035  -0.0307   0.6329   0.1654  -0.2922  -0.0970

 Molecular orbitals for symmetry species 2  (B1 )
 ------------------------------------------------

    Orbital         2        3        4        5        6        7        8
   1 C   :2px   -0.0002  -0.0001  -0.0279  -0.1928  -0.3395   0.1247  -0.4096
   2 C   :2px   -0.0398   0.0209   0.1558   0.5592   0.4600   0.0786   0.3345
   4 C   :2px   -0.0331   0.0223  -0.0442  -0.0273  -0.0947   0.0307  -0.0368
   5 C   :3d1+  -0.0001  -0.0001  -0.0055   0.0198   0.0149   0.0077   0.0139
   6 C   :3d1+   0.0105  -0.0064   0.0095  -0.1057  -0.0217  -0.2341  -0.1203
   7 C   :1s     0.7089   0.0326   0.0001  -0.0161  -0.0081  -0.0032  -0.0006
   8 C   :1s     0.0126   0.0001   0.0184   0.4249   0.3253   0.0622  -0.0054
   9 C   :1s    -0.0639   0.0083  -0.0288   0.1476   0.0813   0.3170   0.1200
  11 C   :1s    -0.0420  -0.0050   0.0482  -0.1562  -0.3342  -0.1874   0.0555
  12 C   :2px    0.0004  -0.0000   0.0036  -0.0021   0.0250  -0.0854   0.2138
  13 C   :2pz    0.0000   0.0001   0.0073  -0.0927   0.1848  -0.0756   0.3268
  14 C   :2px   -0.0192   0.0100   0.0410   0.2592   0.1182   0.2078   0.0981
  15 C   :2pz   -0.0033   0.0158   0.1274   0.2425   0.0547  -0.0733   0.0560
  18 C   :2px   -0.0152   0.0035  -0.0145   0.0199   0.0093  -0.0140   0.0276
  19 C   :2pz   -0.0139   0.0176  -0.0539   0.0209   0.0718   0.0761   0.0110
  20 C   :3d0    0.0002   0.0001  -0.0004   0.0153  -0.0037   0.0027  -0.0070
  23 C   :3d0    0.0006  -0.0050  -0.0321  -0.0547   0.0117  -0.0448  -0.0474
  24 C   :3d1+  -0.0046   0.0017   0.0270   0.0921   0.1080  -0.0192  -0.0014
  25 C   :3d2+  -0.0038   0.0020   0.0156   0.0321  -0.0046   0.0242   0.0252
  26 C   :1s     0.0326  -0.7088  -0.0005  -0.0162   0.0093   0.0016   0.0002
  27 C   :1s     0.0010  -0.0124   0.0001   0.4047  -0.3492  -0.0360   0.0054
  28 C   :1s    -0.0145   0.0608   0.0699   0.1655  -0.0910  -0.0295   0.0348
  30 C   :1s     0.0086   0.0336  -0.0514  -0.0933   0.3140   0.1608  -0.0606
  31 C   :2px    0.0000  -0.0002  -0.0000  -0.0060  -0.0103  -0.0439   0.2025
  32 C   :2pz    0.0002  -0.0001   0.0019   0.0976   0.1554   0.1225  -0.3236
  33 C   :2px   -0.0110   0.0143  -0.0205   0.1031  -0.1103  -0.0309  -0.1222
  34 C   :2pz    0.0144   0.0003   0.1008   0.0562   0.0322  -0.1049   0.1876
  37 C   :2px    0.0097   0.0009   0.0185  -0.0379  -0.0077  -0.0017  -0.0160
  38 C   :2pz   -0.0095   0.0126  -0.0473   0.0939   0.0395   0.0788  -0.0109
  39 C   :3d0   -0.0001  -0.0002   0.0007   0.0155   0.0028   0.0025  -0.0080
  42 C   :3d0    0.0046   0.0005   0.0225   0.0116  -0.0006  -0.0227   0.0389
  43 C   :3d1+   0.0023  -0.0038   0.0148  -0.0191   0.0938  -0.0253   0.0063
  44 C   :3d2+  -0.0019   0.0029  -0.0124  -0.0073  -0.0019   0.0096  -0.0234
  45 C   :2px    0.0001   0.0003  -0.0001  -0.1699   0.3057   0.1377  -0.3922
  46 C   :2px   -0.0225   0.0313  -0.0661   0.1567  -0.3720  -0.0127  -0.0128
  48 C   :2px    0.0131  -0.0063   0.0391  -0.1340   0.0491  -0.0378  -0.0143
  49 C   :3d1+  -0.0001   0.0000  -0.0002  -0.0188   0.0163   0.0039  -0.0117
  50 C   :3d1+  -0.0077   0.0090  -0.0136   0.0479  -0.0781  -0.0106  -0.0218
  51 N   :2px    0.0000  -0.0000  -0.4267   0.0018  -0.0453   0.5393   0.2076
  52 N   :2px   -0.0004   0.0000   0.2251  -0.0098  -0.0028  -0.0214   0.0035
  54 N   :2px    0.0043  -0.0022   0.0349  -0.0010   0.0579  -0.0084   0.0838
  55 N   :3d1+   0.0000  -0.0000  -0.0338   0.0040   0.0068   0.0128   0.0185
  56 N   :3d1+  -0.0008   0.0004   0.0598   0.0314   0.0451  -0.0468   0.0320
  58 O   :1s    -0.0000  -0.0000   0.5823  -0.0312  -0.0717   0.2912   0.0673
  59 O   :1s    -0.0004   0.0001   0.0546   0.0097   0.0086   0.0822   0.0571
  61 O   :1s     0.0027  -0.0006   0.0860  -0.0058   0.0343   0.0173   0.0660
  62 O   :2px    0.0000   0.0000   0.0982  -0.0034   0.0101  -0.3214  -0.1716
  63 O   :2pz    0.0001   0.0000  -0.0809  -0.0098  -0.0530   0.3238   0.0749
  64 O   :2px   -0.0003  -0.0000   0.0298   0.0061   0.0081   0.0301   0.0265
  65 O   :2pz   -0.0004   0.0001  -0.0071   0.0095   0.0123  -0.0281  -0.0023
  68 O   :2px   -0.0001   0.0006   0.0079   0.0046   0.0105  -0.0006  -0.0055
  69 O   :2pz   -0.0007   0.0002  -0.0102   0.0035  -0.0018   0.0176   0.0021
  71 O   :3d1+  -0.0000  -0.0000  -0.0088   0.0001  -0.0014   0.0157   0.0055
  76 H   :1s     0.0006  -0.0000   0.0077   0.1571   0.2114   0.0735  -0.0261
  77 H   :1s     0.0014  -0.0032  -0.0166   0.0374   0.0870   0.0326   0.0002
  78 H   :1s    -0.0037  -0.0014   0.0094  -0.0053  -0.0115  -0.0279   0.0052
  79 H   :2px    0.0000  -0.0000   0.0011   0.0092   0.0118   0.0026   0.0018
  81 H   :2px    0.0004  -0.0005  -0.0001   0.0276   0.0305   0.0209  -0.0053
  82 H   :2pz   -0.0012   0.0012   0.0083   0.0094  -0.0179   0.0050  -0.0053
  83 H   :1s     0.0000  -0.0006   0.0004   0.1496  -0.2278  -0.0436  -0.0091
  84 H   :1s     0.0024  -0.0024   0.0173   0.0095  -0.0489  -0.0289   0.0229
  85 H   :1s     0.0010   0.0035  -0.0060  -0.0033   0.0108   0.0203  -0.0061
  86 H   :2px    0.0001   0.0000  -0.0002   0.0085  -0.0127  -0.0024   0.0020
  88 H   :2px    0.0004  -0.0010   0.0019   0.0137  -0.0232  -0.0054  -0.0052
  89 H   :2pz    0.0014  -0.0010   0.0054   0.0014  -0.0122  -0.0177   0.0168
  91 H   :2px   -0.0009   0.0015   0.0002   0.0184  -0.0229  -0.0111   0.0103

    Orbital         9       10       11       12       13       14       15
   1 C   :2px    0.1276  -0.3632  -0.0449  -0.0008   0.0185   0.0025   0.0461
   2 C   :2px   -0.0733   0.1719   0.1282   0.7327  -0.6708   1.0891  -0.5636
   4 C   :2px   -0.2165   0.0065  -0.2034   6.8788  -2.7975 -36.9034  -0.0871
   5 C   :3d1+  -0.0214   0.0198  -0.0002  -0.0002  -0.0004   0.0033   0.0040
   6 C   :3d1+   0.0556  -0.0415  -0.0683  -0.1164  -0.3066  -1.1444   0.7580
   7 C   :1s     0.0005   0.0010  -0.0007  -0.0036   0.0109   0.0157  -0.0104
   8 C   :1s    -0.0660   0.0035   0.0465  -0.0287   0.0819   0.0243  -0.0052
   9 C   :1s    -0.0893   0.0150   0.1441   0.4055  -0.5796   0.3549  -0.2524
  11 C   :1s    -0.2228   0.2298  -0.1413   2.3069 -10.3108 -29.8677  16.0603
  12 C   :2px   -0.3024   0.3211  -0.0332   0.0337  -0.0376   0.0516  -0.0193
  13 C   :2pz    0.2598   0.0150   0.0990  -0.0231   0.0101  -0.0117  -0.0315
  14 C   :2px    0.0331   0.0092   0.1330   0.5220   0.1330   1.1839  -1.1083
  15 C   :2pz   -0.1061   0.1586  -0.0930   0.2549   0.2763   0.5890  -0.5722
  18 C   :2px   -0.0241  -0.0111  -0.0508   2.0029  -5.2905 -10.2243   3.8930
  19 C   :2pz   -0.0732  -0.0723  -0.0893   3.3316   2.8277 -16.8302  -4.1922
  20 C   :3d0   -0.0117   0.0036  -0.0069  -0.0016  -0.0006  -0.0024  -0.0049
  21 C   :3d1+  -0.0031   0.0313   0.0006   0.0011   0.0024  -0.0055  -0.0100
  23 C   :3d0    0.0591  -0.0552   0.0089  -0.0343  -0.2866  -0.6434   0.4996
  24 C   :3d1+   0.0540  -0.0588  -0.0127  -0.0126  -0.4488   0.2936   0.3744
  25 C   :3d2+  -0.0344   0.0273  -0.0046   0.0380   0.0682   0.0498  -0.1089
  26 C   :1s     0.0004  -0.0011   0.0018  -0.0066  -0.0064   0.0076   0.0126
  27 C   :1s    -0.0649  -0.0165  -0.0225  -0.0673  -0.0476  -0.0218  -0.0056
  28 C   :1s    -0.0633   0.0139  -0.0868   0.7026   0.3185   0.0333  -0.6548
  30 C   :1s    -0.0554  -0.2069   0.0576   3.3666   8.6421 -11.4709 -20.0757
  31 C   :2px   -0.2688  -0.3644   0.0150   0.0542   0.0118   0.0564   0.0129
  32 C   :2pz   -0.2583   0.0176  -0.0690   0.0293   0.0078   0.0180   0.0377
  33 C   :2px    0.1448   0.0200  -0.0477   0.5405  -0.4700  -0.6139   0.7554
  34 C   :2pz   -0.0026   0.1383  -0.0646  -0.2279   0.4847   1.2952  -0.4112
  37 C   :2px    0.0212   0.0255   0.0546   1.4533   4.0336   3.0739  -3.8907
  38 C   :2pz   -0.0210  -0.0448  -0.0843   3.2780   2.1625  -6.1956  -4.9065
  39 C   :3d0   -0.0119  -0.0041  -0.0017  -0.0020   0.0025   0.0026   0.0079
  40 C   :3d1+   0.0004   0.0312  -0.0026   0.0015   0.0025   0.0037  -0.0034
  42 C   :3d0    0.0144   0.0521  -0.0082   0.0243   0.2481   0.0891  -0.2140
  43 C   :3d1+  -0.0190  -0.0711  -0.0248  -0.3321  -0.3058   0.2714   0.5076
  44 C   :3d2+  -0.0105  -0.0246   0.0021   0.0314  -0.0725  -0.2333  -0.0574
  45 C   :2px    0.0937   0.3980  -0.0506  -0.0097  -0.0037   0.0057   0.0241
  46 C   :2px    0.0699  -0.0930   0.0198   1.2100  -0.0370  -1.7416  -0.1664
  48 C   :2px    0.0211   0.0268   0.1174  -1.4637   0.6960   3.4127  -5.2164
  49 C   :3d1+   0.0199   0.0229   0.0001   0.0051   0.0018  -0.0078   0.0040
  50 C   :3d1+  -0.0014  -0.0603  -0.0162   0.1916  -0.2463  -0.2706   0.5592
  51 N   :2px    0.0123   0.0377  -0.1002  -0.0059   0.0172   0.0097  -0.0215
  52 N   :2px   -0.0111  -0.0081   0.0721  -0.0196   0.0566   0.4533  -0.4104
  54 N   :2px    0.0469  -0.0172   0.0571  -0.9577   0.4137   4.9367  -0.0291
  55 N   :3d1+   0.0033   0.0059  -0.0449  -0.0029   0.0022   0.0077  -0.0044
[...]
  24 C   :2py    0.1333  -0.1445  -0.2907  -0.2538  -0.4994   0.3051
  26 C   :2py   -4.6938   5.9962   0.2084   1.9903   2.5890   1.9406
  27 C   :3d1-   0.0084   0.0036  -0.0048   0.0283   0.0013   0.0330
  28 C   :3d1-   0.1523  -0.1310  -0.1143  -0.2120  -0.1779  -0.0826
  29 N   :2py    0.0379   0.3056  -0.0123   0.0034  -0.3143  -0.0710
  30 N   :2py    0.0447   0.1514  -0.0440  -0.0086  -0.0497   0.1776
  32 N   :2py   -2.6464   0.0944   3.4542  -4.1051   4.9573   6.8151
  33 N   :3d1-   0.0009   0.0040   0.0095  -0.0113  -0.0075   0.0176
  34 N   :3d1-   0.0171  -0.0033  -0.2334  -0.0176  -0.0083  -0.1318
  35 O   :2py   -0.0404  -0.1586  -0.1900  -0.0263   0.1719   0.0042
  36 O   :2py   -0.0211  -0.0471  -0.0609  -0.0859   0.1515   0.0462
  38 O   :2py    0.4390  -0.1696  -0.2545   1.8089  -2.0455  -1.9846
  41 O   :3d2-   0.0057   0.0021   0.0460   0.0192  -0.0357   0.0026
  42 O   :3d1-   0.0038   0.0017  -0.0015  -0.0102   0.0137   0.0296
  43 H   :2py   -0.0119   0.0046  -0.0054  -0.0039  -0.0108   0.0023
  44 H   :2py    0.2142  -0.0774  -0.0990  -0.3875  -0.2043  -0.4396
  45 H   :2py    0.0068  -0.0048   0.0031   0.0103   0.0029   0.0098
  46 H   :2py   -0.1637   0.2160   0.2092   0.1543   0.5637  -0.6380
  47 H   :2py   -0.0085   0.0041  -0.0034  -0.0046  -0.0111   0.0091
  48 H   :2py    0.0552  -0.2923   0.0606  -0.5250   0.0281  -0.7711

 Molecular orbitals for symmetry species 4  (A2 )
 ------------------------------------------------

    Orbital         1        2        3        4        5        6        7
   1 C   :3d2-  -0.0047  -0.0326   0.0407  -0.0067  -0.0154   0.0128  -0.0179
   2 C   :3d2-  -0.0426  -0.0126   0.0333   0.1085  -0.1355  -0.0613   0.7051
   3 C   :2py    0.0280   0.4160  -0.3687  -0.0499   0.2475  -0.0116   0.0885
   4 C   :2py   -0.0323   0.0085  -0.1088  -0.0047   0.0129  -0.1806   0.9170
   6 C   :2py   -0.0050   0.0206  -1.0109   0.6062  -2.8182   1.7387   0.2731
   7 C   :3d2-  -0.0002   0.0026  -0.0015  -0.0073   0.0018  -0.0002   0.0295
   8 C   :3d1-  -0.0005  -0.0194  -0.0218   0.0063   0.0058  -0.0052  -0.0259
   9 C   :3d2-  -0.0124   0.0002   0.0128   0.0273   0.0343  -0.0232   0.0617
  10 C   :3d1-  -0.0004  -0.0103  -0.0136   0.0457   0.0341   0.0527   0.4024
  11 C   :2py    0.0194   0.4198   0.3472  -0.1501  -0.2300  -0.0026   0.1093
  12 C   :2py    0.0082   0.0092   0.0928  -0.0729  -0.0236   0.0820   0.8509
  14 C   :2py    0.0037   0.0287   1.1098   0.8971   2.6564  -1.1421   0.7547
  15 C   :3d2-   0.0001   0.0020  -0.0007  -0.0076  -0.0012   0.0009   0.0326
  16 C   :3d1-   0.0015   0.0191  -0.0218  -0.0011   0.0060   0.0015   0.0264
  17 C   :3d2-   0.0051   0.0053  -0.0072   0.0044  -0.0333  -0.0270  -0.1361
  18 C   :3d1-   0.0039  -0.0007  -0.0163  -0.0300   0.0403   0.0836  -0.3348
  19 C   :3d2-  -0.0013  -0.0317  -0.0376   0.0021   0.0123   0.0028  -0.0180
  20 C   :3d2-   0.0015   0.0004  -0.0244   0.0805   0.0917  -0.0277   0.4565
  21 N   :3d2-  -0.0568   0.0031  -0.0007   0.0025  -0.0046  -0.0065   0.0039
  22 N   :3d2-   0.0037   0.0028   0.0134  -0.0225   0.0216  -0.1277  -0.1023
  23 O   :2py    0.6434  -0.0505   0.0496  -0.0333   0.0330   0.1544   0.0155
  24 O   :2py    0.0526  -0.0032   0.0136  -0.0237   0.0249   0.1441  -0.0515
  26 O   :2py    0.0639  -0.0069   0.0589   0.0073   0.0948  -1.5505   0.1236
  27 O   :3d2-   0.0117  -0.0010   0.0012  -0.0013   0.0016   0.0134   0.0009
  29 O   :3d2-   0.0247  -0.0010   0.0042  -0.0041   0.0054  -0.0389  -0.0087
  30 O   :3d1-  -0.0182   0.0004  -0.0004   0.0016  -0.0067   0.0323   0.0124
  31 H   :2py    0.0013   0.0103  -0.0139   0.0079  -0.0036   0.0011   0.0081
  32 H   :2py   -0.0011   0.0035  -0.0023  -0.0450   0.1860  -0.0263  -0.9890
  33 H   :2py    0.0006   0.0107   0.0151   0.0059   0.0022  -0.0010   0.0094
  34 H   :2py    0.0022   0.0055   0.0079  -0.0756  -0.1685  -0.0121  -1.1585

    Orbital         8        9       10       11       12
   1 C   :3d2-  -0.0328  -0.0219  -0.0206   0.0551  -0.0554
   2 C   :3d2-  -0.1252   0.1350   0.7980  -0.7330   2.9644
   3 C   :2py    0.1802  -0.0496   0.3170  -0.3164   0.2992
   4 C   :2py    0.3921   0.3564   1.5074   0.5611   2.4121
   6 C   :2py    1.7887   0.5022   0.4503  -0.1255   0.1674
   7 C   :3d2-   0.0402   0.0026  -0.0133   0.0108  -0.0267
   8 C   :3d1-  -0.0039   0.0087   0.0287   0.0256  -0.0193
   9 C   :3d2-  -0.7497   0.3573   0.5521  -1.0866   0.1969
  10 C   :3d1-   0.2982   0.5915  -1.1212   0.0416   1.6394
  11 C   :2py   -0.1725  -0.0169  -0.2564  -0.3768   0.2262
  12 C   :2py   -0.4587  -0.0124  -1.8139   0.2669   2.5625
  14 C   :2py   -1.7238  -0.4190  -0.4726   0.1166   0.2615
  15 C   :3d2-  -0.0377   0.0037   0.0118   0.0174  -0.0249
  16 C   :3d1-  -0.0034  -0.0079   0.0324  -0.0192   0.0268
  17 C   :3d2-   0.7247   0.0622  -0.4437  -1.2703  -0.0955
  18 C   :3d1-   0.3482  -0.2791  -1.0256  -0.2415  -1.6164
  19 C   :3d2-   0.0311  -0.0023   0.0344   0.0659  -0.0586
  20 C   :3d2-   0.0307  -0.5747  -1.0439  -0.9426   2.8389
  21 N   :3d2-  -0.0045  -0.0047   0.0158  -0.0058   0.0249
  22 N   :3d2-   0.0574  -0.2621   0.0844  -0.0146  -0.1280
  23 O   :2py    0.0192  -0.0574   0.1236  -0.0423   0.0823
  24 O   :2py    0.0249  -0.0833   0.0244  -0.0176  -0.0319
  26 O   :2py   -0.0907  -0.3501   0.0373   0.1485  -0.0389
  29 O   :3d2-   0.0230  -0.0448   0.0118   0.0189  -0.0595
  30 O   :3d1-   0.0004  -0.0264   0.0708  -0.0066   0.0571
  31 H   :2py    0.0097  -0.0033   0.0141   0.0101   0.0360
  32 H   :2py   -1.5759  -0.0211   0.4992  -1.1954  -0.7196
  33 H   :2py   -0.0089  -0.0015  -0.0127   0.0073   0.0350
  34 H   :2py    1.5308   0.0194  -0.3447  -1.3311  -0.9171

  Total CPU  time used in SIRIUS :  1 minute  17 seconds
  Total wall time used in SIRIUS :  1 minute  17 seconds

 
     Date and time (Linux)  : Fri Jun 14 18:28:02 2019
     Host name              : Lab2-333-NPs                            


                     .---------------------------------------.
                     | End of Wave Function Section (SIRIUS) |
                     `---------------------------------------'



                 .------------------------------------------------.
                 | Starting in Dynamic Property Section (RESPONS) |
                 `------------------------------------------------'


 ------------------------------------------------------------------------------
  RESPONSE  -  an MCSCF, MC-srDFT, DFT, and SOPPA response property program
 ------------------------------------------------------------------------------


 -------- OUTPUT FROM RESPONSE INPUT PROCESSING --------




 Linear Response calculation
 ---------------------------

 Print level                                    : IPRLR  =   2
 Maximum number of iterations                   : MAXITL =  60
 Threshold for relative convergence             : THCLR  = 1.000D-03
 Maximum iterations in optimal orbital algorithm: MAXITO =   5

  1 B-frequencies  5.700000D-02

    1 second order properties calculated with symmetry no.    1 and labels:

          ZDIPLEN 

    1 second order properties calculated with symmetry no.    2 and labels:

          XDIPLEN 

    1 second order properties calculated with symmetry no.    3 and labels:

          YDIPLEN 

 2-el. integral transformation level 4: Total CPU and WALL times (sec)     200.297     200.398


   SCF energy         :     -434.230921189972435
 -- inactive part     :     -844.375844410943955
 -- nuclear repulsion :      410.144923220971521


                     ***************************************
                     *** RHF response calculation (TDHF) ***
                     ***************************************

 ----------------------------------------------------------------
 ----- Linear response calculation
 ----- Symmetry of excitation/property operator(s)    1  ( A1 )
 ----------------------------------------------------------------

 Number of excitations of this symmetry            0
 Number of response properties of this symmetry    1
 Number of C6/C8 properties of this symmetry       0


 Perturbation symmetry.     KSYMOP:       1
 Perturbation spin symmetry.TRPLET:       F
 Orbital variables.         KZWOPT:    2663
 Configuration variables.   KZCONF:       0
 Total number of variables. KZVAR :    2663


 RSPLR -- linear response calculation for symmetry 1  ( A1 )
 RSPLR -- operator label : ZDIPLEN 
 RSPLR -- operator spin  :   0
 RSPLR -- frequencies    :     0.057000



 ---  SOLVING SETS OF LINEAR EQUATIONS FOR LINEAR RESPONSE PROPERTIES ---

 Operator symmetry = 1  ( A1 ); triplet =   F


 ** RSPCTL MICROITERATION NUMBER    1

       No.  Residual tot.,    conf., and orb.    Bnorm      Frequency 
      ----------------------------------------------------------------
         1    6.12471D+00  0.00D+00  6.12D+00  9.32D+00    5.70000D-02

 ** RSPCTL MICROITERATION NUMBER    2

       No.  Residual tot.,    conf., and orb.    Bnorm      Frequency 
      ----------------------------------------------------------------
         1    1.94481D+00  0.00D+00  1.94D+00  1.08D+01    5.70000D-02

 ** RSPCTL MICROITERATION NUMBER    3

       No.  Residual tot.,    conf., and orb.    Bnorm      Frequency 
      ----------------------------------------------------------------
         1    8.59147D-01  0.00D+00  8.59D-01  1.14D+01    5.70000D-02

 ** RSPCTL MICROITERATION NUMBER    4

       No.  Residual tot.,    conf., and orb.    Bnorm      Frequency 
      ----------------------------------------------------------------
         1    4.62382D-01  0.00D+00  4.62D-01  1.15D+01    5.70000D-02

 ** RSPCTL MICROITERATION NUMBER    5

       No.  Residual tot.,    conf., and orb.    Bnorm      Frequency 
      ----------------------------------------------------------------
         1    2.23423D-01  0.00D+00  2.23D-01  1.16D+01    5.70000D-02

 ** RSPCTL MICROITERATION NUMBER    6

       No.  Residual tot.,    conf., and orb.    Bnorm      Frequency 
      ----------------------------------------------------------------
         1    9.89220D-02  0.00D+00  9.89D-02  1.16D+01    5.70000D-02

 ** RSPCTL MICROITERATION NUMBER    7

       No.  Residual tot.,    conf., and orb.    Bnorm      Frequency 
      ----------------------------------------------------------------
         1    4.74788D-02  0.00D+00  4.75D-02  1.16D+01    5.70000D-02

 ** RSPCTL MICROITERATION NUMBER    8

       No.  Residual tot.,    conf., and orb.    Bnorm      Frequency 
      ----------------------------------------------------------------
         1    1.43583D-02  0.00D+00  1.44D-02  1.16D+01    5.70000D-02

 ** RSPCTL MICROITERATION NUMBER    9

       No.  Residual tot.,    conf., and orb.    Bnorm      Frequency 
      ----------------------------------------------------------------
         1    5.83547D-03  0.00D+00  5.84D-03  1.16D+01    5.70000D-02

 *** THE REQUESTED    1 SOLUTION VECTORS CONVERGED

 Convergence of RSP solution vectors, threshold = 1.00D-03
 ---------------------------------------------------------------
 (dimension of paired reduced space:   18)
 RSP solution vector no.    1; norm of residual   5.01D-04

 *** RSPCTL MICROITERATIONS CONVERGED


           Final output of second order properties from linear response
           ------------------------------------------------------------


@ Spin symmetry of operators: singlet

 Note that minus the linear response function: - << A; B >>(omega) is printed.
 The results are of quadratic accuracy using Sellers formula.

@ FREQUENCY DEPENDENT SECOND ORDER PROPERTIES WITH FREQUENCY :

@    a.u.:  5.7000000D-02
@    cm-1:  1.2510054D+04
@    eV  :  1.5510489D+00
@  kJ/mol:  1.4965348D+02
@    nm  :  7.9935707D+02

@ -<< ZDIPLEN  ; ZDIPLEN  >> =  1.126054895772D+02


 Time used in linear response calculation is      1.89 CPU seconds for symmetry 1
 ----------------------------------------------------------------
 ----- Linear response calculation
 ----- Symmetry of excitation/property operator(s)    2  ( B1 )
 ----------------------------------------------------------------

 Number of excitations of this symmetry            0
 Number of response properties of this symmetry    1
 Number of C6/C8 properties of this symmetry       0


 Perturbation symmetry.     KSYMOP:       2
 Perturbation spin symmetry.TRPLET:       F
 Orbital variables.         KZWOPT:    2555
 Configuration variables.   KZCONF:       0
 Total number of variables. KZVAR :    2555


 RSPLR -- linear response calculation for symmetry 2  ( B1 )
 RSPLR -- operator label : XDIPLEN 
 RSPLR -- operator spin  :   0
 RSPLR -- frequencies    :     0.057000



 ---  SOLVING SETS OF LINEAR EQUATIONS FOR LINEAR RESPONSE PROPERTIES ---

 Operator symmetry = 2  ( B1 ); triplet =   F


 ** RSPCTL MICROITERATION NUMBER    1

       No.  Residual tot.,    conf., and orb.    Bnorm      Frequency 
      ----------------------------------------------------------------
         1    6.68331D+00  0.00D+00  6.68D+00  7.56D+00    5.70000D-02

 ** RSPCTL MICROITERATION NUMBER    2

       No.  Residual tot.,    conf., and orb.    Bnorm      Frequency 
      ----------------------------------------------------------------
         1    2.06688D+00  0.00D+00  2.07D+00  9.14D+00    5.70000D-02

 ** RSPCTL MICROITERATION NUMBER    3

       No.  Residual tot.,    conf., and orb.    Bnorm      Frequency 
      ----------------------------------------------------------------
         1    1.03276D+00  0.00D+00  1.03D+00  9.62D+00    5.70000D-02

 ** RSPCTL MICROITERATION NUMBER    4

       No.  Residual tot.,    conf., and orb.    Bnorm      Frequency 
      ----------------------------------------------------------------
         1    5.21718D-01  0.00D+00  5.22D-01  9.85D+00    5.70000D-02

 ** RSPCTL MICROITERATION NUMBER    5

       No.  Residual tot.,    conf., and orb.    Bnorm      Frequency 
      ----------------------------------------------------------------
         1    2.56391D-01  0.00D+00  2.56D-01  9.96D+00    5.70000D-02

 ** RSPCTL MICROITERATION NUMBER    6

       No.  Residual tot.,    conf., and orb.    Bnorm      Frequency 
      ----------------------------------------------------------------
         1    6.46193D-02  0.00D+00  6.46D-02  9.97D+00    5.70000D-02

 ** RSPCTL MICROITERATION NUMBER    7

       No.  Residual tot.,    conf., and orb.    Bnorm      Frequency 
      ----------------------------------------------------------------
         1    1.73331D-02  0.00D+00  1.73D-02  9.97D+00    5.70000D-02

 ** RSPCTL MICROITERATION NUMBER    8

       No.  Residual tot.,    conf., and orb.    Bnorm      Frequency 
      ----------------------------------------------------------------
         1    4.59548D-03  0.00D+00  4.60D-03  9.97D+00    5.70000D-02

 *** THE REQUESTED    1 SOLUTION VECTORS CONVERGED

 Convergence of RSP solution vectors, threshold = 1.00D-03
 ---------------------------------------------------------------
 (dimension of paired reduced space:   16)
 RSP solution vector no.    1; norm of residual   4.61D-04

 *** RSPCTL MICROITERATIONS CONVERGED


           Final output of second order properties from linear response
           ------------------------------------------------------------


@ Spin symmetry of operators: singlet

 Note that minus the linear response function: - << A; B >>(omega) is printed.
 The results are of quadratic accuracy using Sellers formula.

@ FREQUENCY DEPENDENT SECOND ORDER PROPERTIES WITH FREQUENCY :

@    a.u.:  5.7000000D-02
@    cm-1:  1.2510054D+04
@    eV  :  1.5510489D+00
@  kJ/mol:  1.4965348D+02
@    nm  :  7.9935707D+02

@ -<< XDIPLEN  ; XDIPLEN  >> =  9.873187790796D+01


 Time used in linear response calculation is      1.66 CPU seconds for symmetry 2
 ----------------------------------------------------------------
 ----- Linear response calculation
 ----- Symmetry of excitation/property operator(s)    3  ( B2 )
 ----------------------------------------------------------------

 Number of excitations of this symmetry            0
 Number of response properties of this symmetry    1
 Number of C6/C8 properties of this symmetry       0


 Perturbation symmetry.     KSYMOP:       3
 Perturbation spin symmetry.TRPLET:       F
 Orbital variables.         KZWOPT:    1529
 Configuration variables.   KZCONF:       0
 Total number of variables. KZVAR :    1529


 RSPLR -- linear response calculation for symmetry 3  ( B2 )
 RSPLR -- operator label : YDIPLEN 
 RSPLR -- operator spin  :   0
 RSPLR -- frequencies    :     0.057000



 ---  SOLVING SETS OF LINEAR EQUATIONS FOR LINEAR RESPONSE PROPERTIES ---

 Operator symmetry = 3  ( B2 ); triplet =   F


 ** RSPCTL MICROITERATION NUMBER    1

       No.  Residual tot.,    conf., and orb.    Bnorm      Frequency 
      ----------------------------------------------------------------
         1    3.25000D+00  0.00D+00  3.25D+00  4.79D+00    5.70000D-02

 ** RSPCTL MICROITERATION NUMBER    2

       No.  Residual tot.,    conf., and orb.    Bnorm      Frequency 
      ----------------------------------------------------------------
         1    7.24965D-01  0.00D+00  7.25D-01  5.78D+00    5.70000D-02

 ** RSPCTL MICROITERATION NUMBER    3

       No.  Residual tot.,    conf., and orb.    Bnorm      Frequency 
      ----------------------------------------------------------------
         1    1.60789D-01  0.00D+00  1.61D-01  5.88D+00    5.70000D-02

 ** RSPCTL MICROITERATION NUMBER    4

       No.  Residual tot.,    conf., and orb.    Bnorm      Frequency 
      ----------------------------------------------------------------
         1    6.35973D-02  0.00D+00  6.36D-02  5.88D+00    5.70000D-02

 ** RSPCTL MICROITERATION NUMBER    5

       No.  Residual tot.,    conf., and orb.    Bnorm      Frequency 
      ----------------------------------------------------------------
         1    2.90494D-02  0.00D+00  2.90D-02  5.88D+00    5.70000D-02

 ** RSPCTL MICROITERATION NUMBER    6

       No.  Residual tot.,    conf., and orb.    Bnorm      Frequency 
      ----------------------------------------------------------------
         1    1.06437D-02  0.00D+00  1.06D-02  5.89D+00    5.70000D-02

 ** RSPCTL MICROITERATION NUMBER    7

       No.  Residual tot.,    conf., and orb.    Bnorm      Frequency 
      ----------------------------------------------------------------
         1    2.23527D-03  0.00D+00  2.24D-03  5.89D+00    5.70000D-02

 *** THE REQUESTED    1 SOLUTION VECTORS CONVERGED

 Convergence of RSP solution vectors, threshold = 1.00D-03
 ---------------------------------------------------------------
 (dimension of paired reduced space:   14)
 RSP solution vector no.    1; norm of residual   3.80D-04

 *** RSPCTL MICROITERATIONS CONVERGED


           Final output of second order properties from linear response
           ------------------------------------------------------------


@ Spin symmetry of operators: singlet

 Note that minus the linear response function: - << A; B >>(omega) is printed.
 The results are of quadratic accuracy using Sellers formula.

@ FREQUENCY DEPENDENT SECOND ORDER PROPERTIES WITH FREQUENCY :

@    a.u.:  5.7000000D-02
@    cm-1:  1.2510054D+04
@    eV  :  1.5510489D+00
@  kJ/mol:  1.4965348D+02
@    nm  :  7.9935707D+02

@ -<< YDIPLEN  ; YDIPLEN  >> =  5.022905709069D+01


 Time used in linear response calculation is      1.30 CPU seconds for symmetry 3

  Total CPU  time used in RESPONSE:  3 minutes 25 seconds
  Total wall time used in RESPONSE:  3 minutes 25 seconds


                   .-------------------------------------------.
                   | End of Dynamic Property Section (RESPONS) |
                   `-------------------------------------------'

  Total CPU  time used in DALTON:  5 minutes 19 seconds
  Total wall time used in DALTON:  5 minutes 21 seconds

 
     Date and time (Linux)  : Fri Jun 14 18:31:27 2019
     Host name              : Lab2-333-NPs                            
