

     ************************************************************************
     *************** Dalton - An Electronic Structure Program ***************
     ************************************************************************

    This is output from DALTON release Dalton2018.1 (2019)
         ( Web site: http://daltonprogram.org )

   ----------------------------------------------------------------------------

    NOTE:
     
    Dalton is an experimental code for the evaluation of molecular
    properties using (MC)SCF, DFT, CI, and CC wave functions.
    The authors accept no responsibility for the performance of
    the code or for the correctness of the results.
     
    The code (in whole or part) is provided under a licence and
    is not to be reproduced for further distribution without
    the written permission of the authors or their representatives.
     
    See the home page "http://daltonprogram.org" for further information.
     
    If results obtained with this code are published,
    the appropriate citations would be both of:
     
       K. Aidas, C. Angeli, K. L. Bak, V. Bakken, R. Bast,
       L. Boman, O. Christiansen, R. Cimiraglia, S. Coriani,
       P. Dahle, E. K. Dalskov, U. Ekstroem,
       T. Enevoldsen, J. J. Eriksen, P. Ettenhuber, B. Fernandez,
       L. Ferrighi, H. Fliegl, L. Frediani, K. Hald, A. Halkier,
       C. Haettig, H. Heiberg, T. Helgaker, A. C. Hennum,
       H. Hettema, E. Hjertenaes, S. Hoest, I.-M. Hoeyvik,
       M. F. Iozzi, B. Jansik, H. J. Aa. Jensen, D. Jonsson,
       P. Joergensen, J. Kauczor, S. Kirpekar,
       T. Kjaergaard, W. Klopper, S. Knecht, R. Kobayashi, H. Koch,
       J. Kongsted, A. Krapp, K. Kristensen, A. Ligabue,
       O. B. Lutnaes, J. I. Melo, K. V. Mikkelsen, R. H. Myhre,
       C. Neiss, C. B. Nielsen, P. Norman, J. Olsen,
       J. M. H. Olsen, A. Osted, M. J. Packer, F. Pawlowski,
       T. B. Pedersen, P. F. Provasi, S. Reine, Z. Rinkevicius,
       T. A. Ruden, K. Ruud, V. Rybkin, P. Salek, C. C. M. Samson,
       A. Sanchez de Meras, T. Saue, S. P. A. Sauer,
       B. Schimmelpfennig, K. Sneskov, A. H. Steindal,
       K. O. Sylvester-Hvid, P. R. Taylor, A. M. Teale,
       E. I. Tellgren, D. P. Tew, A. J. Thorvaldsen, L. Thoegersen,
       O. Vahtras, M. A. Watson, D. J. D. Wilson, M. Ziolkowski
       and H. Agren,
       "The Dalton quantum chemistry program system",
       WIREs Comput. Mol. Sci. 2014, 4:269–284 (doi: 10.1002/wcms.1172)
     
    and
     
       Dalton, a molecular electronic structure program,
       Release Dalton2018.1 (2019), see http://daltonprogram.org
   ----------------------------------------------------------------------------

    Authors in alphabetical order (major contribution(s) in parenthesis):

  Kestutis Aidas,           Vilnius University,           Lithuania   (QM/MM)
  Celestino Angeli,         University of Ferrara,        Italy       (NEVPT2)
  Keld L. Bak,              UNI-C,                        Denmark     (AOSOPPA, non-adiabatic coupling, magnetic properties)
  Vebjoern Bakken,          University of Oslo,           Norway      (DALTON; geometry optimizer, symmetry detection)
  Radovan Bast,             UiT The Arctic U. of Norway,  Norway      (DALTON installation and execution frameworks)
  Pablo Baudin,             University of Valencia,       Spain       (Cholesky excitation energies)
  Linus Boman,              NTNU,                         Norway      (Cholesky decomposition and subsystems)
  Ove Christiansen,         Aarhus University,            Denmark     (CC module)
  Renzo Cimiraglia,         University of Ferrara,        Italy       (NEVPT2)
  Sonia Coriani,            Technical Univ. of Denmark,   Denmark     (CC module, MCD in RESPONS)
  Janusz Cukras,            University of Trieste,        Italy       (MChD in RESPONS)
  Paal Dahle,               University of Oslo,           Norway      (Parallelization)
  Erik K. Dalskov,          UNI-C,                        Denmark     (SOPPA)
  Thomas Enevoldsen,        Univ. of Southern Denmark,    Denmark     (SOPPA)
  Janus J. Eriksen,         Aarhus University,            Denmark     (Polarizable embedding model, TDA)
  Rasmus Faber,             University of Copenhagen,     Denmark     (Vib.avg. NMR with SOPPA, parallel AO-SOPPA)
  Tobias Fahleson,          KTH Stockholm,                Sweden      (Damped cubic response)
  Berta Fernandez,          U. of Santiago de Compostela, Spain       (doublet spin, ESR in RESPONS)
  Lara Ferrighi,            Aarhus University,            Denmark     (PCM Cubic response)
  Heike Fliegl,             University of Oslo,           Norway      (CCSD(R12))
  Luca Frediani,            UiT The Arctic U. of Norway,  Norway      (PCM)
  Bin Gao,                  UiT The Arctic U. of Norway,  Norway      (Gen1Int library)
  Christof Haettig,         Ruhr-University Bochum,       Germany     (CC module)
  Kasper Hald,              Aarhus University,            Denmark     (CC module)
  Asger Halkier,            Aarhus University,            Denmark     (CC module)
  Frederik Beyer Hansen,    University of Copenhagen,     Denmark     (Parallel AO-SOPPA)
  Erik D. Hedegaard,        Univ. of Southern Denmark,    Denmark     (Polarizable embedding model, QM/MM)
  Hanne Heiberg,            University of Oslo,           Norway      (geometry analysis, selected one-electron integrals)
  Trygve Helgaker,          University of Oslo,           Norway      (DALTON; ABACUS, ERI, DFT modules, London, and much more)
  Alf Christian Hennum,     University of Oslo,           Norway      (Parity violation)
  Hinne Hettema,            University of Auckland,       New Zealand (quadratic response in RESPONS; SIRIUS supersymmetry)
  Eirik Hjertenaes,         NTNU,                         Norway      (Cholesky decomposition)
  Pi A. B. Haase,           University of Copenhagen,     Denmark     (Triplet AO-SOPPA)
  Maria Francesca Iozzi,    University of Oslo,           Norway      (RPA)
  Christoph Jacob           TU Braunschweig               Germany     (Frozen density embedding model)
  Brano Jansik              Technical Univ. of Ostrava    Czech Rep.  (DFT cubic response)
  Hans Joergen Aa. Jensen,  Univ. of Southern Denmark,    Denmark     (DALTON; SIRIUS, RESPONS, ABACUS modules, London, and much more)
  Dan Jonsson,              UiT The Arctic U. of Norway,  Norway      (cubic response in RESPONS module)
  Poul Joergensen,          Aarhus University,            Denmark     (RESPONS, ABACUS, and CC modules)
  Maciej Kaminski,          University of Warsaw,         Poland      (CPPh in RESPONS)
  Joanna Kauczor,           Linkoeping University,        Sweden      (Complex polarization propagator (CPP) module)
  Sheela Kirpekar,          Univ. of Southern Denmark,    Denmark     (Mass-velocity & Darwin integrals)
  Wim Klopper,              KIT Karlsruhe,                Germany     (R12 code in CC, SIRIUS, and ABACUS modules)
  Stefan Knecht,            ETH Zurich,                   Switzerland (Parallel CI and MCSCF)
  Rika Kobayashi,           Australian National Univ.,    Australia   (DIIS in CC, London in MCSCF)
  Henrik Koch,              NTNU,                         Norway      (CC module, Cholesky decomposition)
  Jacob Kongsted,           Univ. of Southern Denmark,    Denmark     (Polarizable embedding model, QM/MM)
  Andrea Ligabue,           University of Modena,         Italy       (CTOCD, AOSOPPA)
  Nanna H. List             Univ. of Southern Denmark,    Denmark     (Polarizable embedding model)
  Ola B. Lutnaes,           University of Oslo,           Norway      (DFT Hessian)
  Juan I. Melo,             University of Buenos Aires,   Argentina   (LRESC, Relativistic Effects on NMR Shieldings)
  Kurt V. Mikkelsen,        University of Copenhagen,     Denmark     (MC-SCRF and QM/MM)
  Rolf H. Myhre,            NTNU,                         Norway      (Subsystems and CC3)
  Christian Neiss,          Univ. Erlangen-Nuernberg,     Germany     (CCSD(R12))
  Christian B. Nielsen,     University of Copenhagen,     Denmark     (QM/MM)
  Patrick Norman,           KTH Stockholm,                Sweden      (Cubic response and complex frequency response in RESPONS)
  Jeppe Olsen,              Aarhus University,            Denmark     (SIRIUS CI/density modules)
  Jogvan Magnus H. Olsen,   Univ. of Southern Denmark,    Denmark     (Polarizable embedding model, QM/MM)
  Anders Osted,             Copenhagen University,        Denmark     (QM/MM)
  Martin J. Packer,         University of Sheffield,      UK          (SOPPA)
  Filip Pawlowski,          Kazimierz Wielki University,  Poland      (CC3)
  Morten N. Pedersen,       Univ. of Southern Denmark,    Denmark     (Polarizable embedding model)
  Thomas B. Pedersen,       University of Oslo,           Norway      (Cholesky decomposition)
  Patricio F. Provasi,      University of Northeastern,   Argentina   (Analysis of coupling constants in localized orbitals)
  Zilvinas Rinkevicius,     KTH Stockholm,                Sweden      (open-shell DFT, ESR)
  Elias Rudberg,            KTH Stockholm,                Sweden      (DFT grid and basis info)
  Torgeir A. Ruden,         University of Oslo,           Norway      (Numerical derivatives in ABACUS)
  Kenneth Ruud,             UiT The Arctic U. of Norway,  Norway      (DALTON; ABACUS magnetic properties and much more)
  Pawel Salek,              KTH Stockholm,                Sweden      (DALTON; DFT code)
  Claire C. M. Samson       University of Karlsruhe       Germany     (Boys localization, r12 integrals in ERI)
  Alfredo Sanchez de Meras, University of Valencia,       Spain       (CC module, Cholesky decomposition)
  Trond Saue,               Paul Sabatier University,     France      (direct Fock matrix construction)
  Stephan P. A. Sauer,      University of Copenhagen,     Denmark     (SOPPA(CCSD), SOPPA prop., AOSOPPA, vibrational g-factors)
  Andre S. P. Gomes,        CNRS/Universite de Lille,     France      (Frozen density embedding model)
  Bernd Schimmelpfennig,    Forschungszentrum Karlsruhe,  Germany     (AMFI module)
  Kristian Sneskov,         Aarhus University,            Denmark     (Polarizable embedding model, QM/MM)
  Arnfinn H. Steindal,      UiT The Arctic U. of Norway,  Norway      (parallel QM/MM, Polarizable embedding model)
  Casper Steinmann,         Univ. of Southern Denmark,    Denmark     (QFIT, Polarizable embedding model)
  K. O. Sylvester-Hvid,     University of Copenhagen,     Denmark     (MC-SCRF)
  Peter R. Taylor,          VLSCI/Univ. of Melbourne,     Australia   (Symmetry handling ABACUS, integral transformation)
  Andrew M. Teale,          University of Nottingham,     England     (DFT-AC, DFT-D)
  David P. Tew,             University of Bristol,        England     (CCSD(R12))
  Olav Vahtras,             KTH Stockholm,                Sweden      (triplet response, spin-orbit, ESR, TDDFT, open-shell DFT)
  Lucas Visscher,           Vrije Universiteit Amsterdam, Netherlands (Frozen density embedding model)
  David J. Wilson,          La Trobe University,          Australia   (DFT Hessian and DFT magnetizabilities)
  Hans Agren,               KTH Stockholm,                Sweden      (SIRIUS module, RESPONS, MC-SCRF solvation model)
 --------------------------------------------------------------------------------

     Date and time (Linux)  : Wed Aug 28 16:43:42 2019
     Host name              : Lab2-333-NPs                            

 * Work memory size             :    64000000 =  488.28 megabytes.

 * Directories for basis set searches:
   1) /home/lab333/dalton/build_2018_atlas
   2) /home/lab333/dalton/build_2018_atlas/basis


Compilation information
-----------------------

 Who compiled             | lab333
 Host                     | Lab2-333-NPs
 System                   | Linux-4.4.0-43-Microsoft
 CMake generator          | Unix Makefiles
 Processor                | x86_64
 64-bit integers          | OFF
 MPI                      | OFF
 Fortran compiler         | /usr/bin/gfortran
 Fortran compiler version | GNU Fortran (Ubuntu 7.3.0-27ubuntu1~18.04) 7.3.0
 C compiler               | /usr/bin/gcc
 C compiler version       | gcc (Ubuntu 7.3.0-27ubuntu1~18.04) 7.3.0
 C++ compiler             | /usr/bin/g++
 C++ compiler version     | g++ (Ubuntu 7.3.0-27ubuntu1~18.04) 7.3.0
 BLAS                     | /usr/lib/x86_64-linux-gnu/libf77blas.so;/usr/lib/x
                          | 86_64-linux-gnu/libcblas.so;/usr/lib/x86_64-linux-
                          | gnu/libatlas.so
 LAPACK                   | /usr/lib/x86_64-linux-gnu/libatlas.so;/usr/lib/x86
                          | _64-linux-gnu/atlas/liblapack.so
 Static linking           | OFF
 Last Git revision        | da625bf48c74028e805616daee31bc5d76b3a20d
 Git branch               | (HEAD detached at Dalton2018.1)
 Configuration time       | 2019-01-18 10:20:51.437510


   Content of the .dal input file
 ----------------------------------

**DALTON INPUT
.RUN RESPONSE
**WAVE FUNCTIONS
.HF
**RESPONSE
*LINEAR
.DIPLEN
.FREQUENCIES
1
0.057
**END OF DALTON INPUT



   Content of the .mol file
 ----------------------------

BASIS
aug-cc-pCVDZ
 nitrobenzene
 Generated by the Dalton Input File Plugin for Avogadro
Atomtypes=4 Angstrom
Charge=6.0 Atoms=6
C          0.00000        0.00000        0.00000
C         -1.21751        0.00000       -0.69427
C         -1.21114        0.00000       -2.09021
C         -0.00000        0.00000       -2.78479
C          1.21114        0.00000       -2.09021
C          1.21751        0.00000       -0.69427
Charge=7.0 Atoms=1
N         -0.00000       -0.00000        1.46794
Charge=8.0 Atoms=2
O         -1.09689       -0.00000        2.04531
O          1.09689       -0.00000        2.04531
Charge=1.0 Atoms=5
H         -2.16969        0.00000       -0.16792
H         -2.15084        0.00000       -2.63827
H         -0.00000        0.00000       -3.87287
H          2.15084        0.00000       -2.63827
H          2.16968        0.00000       -0.16792


       *******************************************************************
       *********** Output from DALTON general input processing ***********
       *******************************************************************

 --------------------------------------------------------------------------------
   Overall default print level:    0
   Print level for DALTON.STAT:    1

    HERMIT 1- and 2-electron integral sections will be executed
    "Old" integral transformation used (limited to max 255 basis functions)
    Wave function sections will be executed (SIRIUS module)
    Dynamic molecular response properties section will be executed (RESPONSE module)
 --------------------------------------------------------------------------------


   ****************************************************************************
   *************** Output of molecule and basis set information ***************
   ****************************************************************************


    The two title cards from your ".mol" input:
    ------------------------------------------------------------------------
 1:  nitrobenzene                                                           
 2:  Generated by the Dalton Input File Plugin for Avogadro                 
    ------------------------------------------------------------------------

  Coordinates are entered in Angstrom and converted to atomic units.
          - Conversion factor : 1 bohr = 0.52917721 A

  Atomic type no.    1
  --------------------
  Nuclear charge:   6.00000
  Number of symmetry independent centers:    6
  Number of basis sets to read;    2
  Basis set file used for this atomic type with Z =   6 :
     "/home/lab333/dalton/build_2018_atlas/basis/aug-cc-pCVDZ"

  Atomic type no.    2
  --------------------
  Nuclear charge:   7.00000
  Number of symmetry independent centers:    1
  Number of basis sets to read;    2
  Basis set file used for this atomic type with Z =   7 :
     "/home/lab333/dalton/build_2018_atlas/basis/aug-cc-pCVDZ"

  Atomic type no.    3
  --------------------
  Nuclear charge:   8.00000
  Number of symmetry independent centers:    2
  Number of basis sets to read;    2
  Basis set file used for this atomic type with Z =   8 :
     "/home/lab333/dalton/build_2018_atlas/basis/aug-cc-pCVDZ"

  Atomic type no.    4
  --------------------
  Nuclear charge:   1.00000
  Number of symmetry independent centers:    5
  Number of basis sets to read;    2
  Basis set file used for this atomic type with Z =   1 :
     "/home/lab333/dalton/build_2018_atlas/basis/aug-cc-pCVDZ"


                      SYMADD: Requested addition of symmetry
                      --------------------------------------

 Symmetry test threshold:  5.00E-06

@   The molecule is centered at center of mass and rotated
@   so principal axes of inertia are along coordinate axes.

 Symmetry class found: C(s)           

 Symmetry Independent Centres             
 ----------------------------
       8 :      0.00000000    -2.07282153     4.23093716  Isotope  1
       8 :      0.00000000     2.07282185     4.23093716  Isotope  1
       7 :      0.00000000     0.00000000     3.13986598  Isotope  1
       6 :      0.00000000     0.00000000     0.36586142  Isotope  1
       6 :      0.00000000    -2.30076030    -0.94611874  Isotope  1
       6 :      0.00000000     2.30076061    -0.94611874  Isotope  1
       6 :      0.00000000    -2.28872275    -3.58406302  Isotope  1
       6 :      0.00000000     2.28872305    -3.58406303  Isotope  1
       6 :      0.00000000     0.00000000    -4.89662900  Isotope  1
       1 :      0.00000000     4.10010113     0.04853860  Isotope  1
       1 :      0.00000000    -4.10011972     0.04853861  Isotope  1
       1 :      0.00000000    -4.06449839    -4.61974632  Isotope  1
       1 :      0.00000000     4.06449869    -4.61974633  Isotope  1
       1 :      0.00000000     0.00000000    -6.95280220  Isotope  1

 The following symmetry element was found:   X        


                         SYMGRP: Point group information
                         -------------------------------

@    Full point group is: C(s)           
@    Represented as:      Cs 

@  * The irrep name for each symmetry:    1: A'     2: A" 

   * The point group was generated by:

      Reflection in the yz-plane

   * Group multiplication table

        |  E   Oyz
   -----+----------
     E  |  E   Oyz
    Oyz | Oyz   E 

   * Character table

        |  E   Oyz
   -----+----------
    A'  |   1    1
    A"  |   1   -1

   * Direct product table

        | A'   A" 
   -----+----------
    A'  | A'   A" 
    A"  | A"   A' 


                                 Isotopic Masses
                                 ---------------

                           C          12.000000
                           C          12.000000
                           C          12.000000
                           C          12.000000
                           C          12.000000
                           C          12.000000
                           N          14.003074
                           O          15.994915
                           O          15.994915
                           H           1.007825
                           H           1.007825
                           H           1.007825
                           H           1.007825
                           H           1.007825

                       Total mass:   123.032029 amu
                       Natural abundance:  92.716 %

 Center-of-mass coordinates (a.u.):    0.000000   -0.000000    0.000000


  Atoms and basis sets
  --------------------

  Number of atom types :    4
  Total number of atoms:   14

  Basis set used is "aug-cc-pCVDZ" from the basis set library.

  label    atoms   charge   prim   cont     basis
  ----------------------------------------------------------------------
  C           6    6.0000    39    27      [11s6p2d|5s4p2d]                                   
  N           1    7.0000    39    27      [11s6p2d|5s4p2d]                                   
  O           2    8.0000    39    27      [11s6p2d|5s4p2d]                                   
  H           5    1.0000    11     9      [5s2p|3s2p]                                        
  ----------------------------------------------------------------------
  total:     14   64.0000   406   288
  ----------------------------------------------------------------------
  Spherical harmonic basis used.

  Threshold for neglecting AO integrals:  1.00D-12


  Symmetry Coordinates
  --------------------

  Number of coordinates in each symmetry:    28   14


   Interatomic separations (in Angstrom):
   --------------------------------------

            C           C           C           C           C           C     
            ------      ------      ------      ------      ------      ------
 C     :    0.000000
 C     :    1.401550    0.000000
 C     :    2.415748    1.395955    0.000000
 C     :    2.784790    2.419216    1.396174    0.000000
 C     :    2.415748    2.801248    2.422280    1.396174    0.000000
 C     :    1.401550    2.435020    2.801248    2.419216    1.395955    0.000000
 N     :    1.467940    2.481428    3.758629    4.252730    3.758629    2.481428
 O     :    2.320875    2.742234    4.137098    4.953083    4.735982    3.586328
 O     :    2.320875    3.586328    4.735982    4.953083    4.137098    2.742234
 H     :    2.176178    1.087976    2.148026    3.399347    3.889114    3.427852
 H     :    3.403907    2.156442    1.087845    2.155825    3.406359    3.889077
 H     :    3.872870    3.403796    2.155165    1.088080    2.155165    3.403796
 H     :    3.403907    3.889077    3.406359    2.155825    1.087845    2.156442
 H     :    2.176168    3.427842    3.889106    3.399341    2.148022    1.087967

            N           O           O           H           H           H     
            ------      ------      ------      ------      ------      ------
 N     :    0.000000
 O     :    1.239566    0.000000
 O     :    1.239566    2.193780    0.000000
 H     :    2.717277    2.459530    3.945749    0.000000
 H     :    4.635415    4.800701    5.699445    2.470422    0.000000
 H     :    5.340810    6.018972    6.018972    4.293508    2.479990    0.000000
 H     :    4.635415    5.699445    4.800701    4.976908    4.301680    2.479990
 H     :    2.717269    3.945740    2.459525    4.339370    4.976899    4.293503

            H           H     
            ------      ------
 H     :    0.000000
 H     :    2.470422    0.000000


  Max    interatomic separation is    6.0190 Angstrom (   11.3742 Bohr)
  between atoms   12 and    9, "H     " and "O     ".

  Min HX interatomic separation is    1.0878 Angstrom (    2.0557 Bohr)

  Min YX interatomic separation is    1.2396 Angstrom (    2.3424 Bohr)


  Bond distances (Angstrom):
  --------------------------

                  atom 1     atom 2       distance
                  ------     ------       --------
  bond distance:  C          C            1.401550
  bond distance:  C          C            1.395955
  bond distance:  C          C            1.396174
  bond distance:  C          C            1.396174
  bond distance:  C          C            1.401550
  bond distance:  C          C            1.395955
  bond distance:  N          C            1.467940
  bond distance:  O          N            1.239566
  bond distance:  O          N            1.239566
  bond distance:  H          C            1.087976
  bond distance:  H          C            1.087845
  bond distance:  H          C            1.088080
  bond distance:  H          C            1.087845
  bond distance:  H          C            1.087967


  Bond angles (degrees):
  ----------------------

                  atom 1     atom 2     atom 3         angle
                  ------     ------     ------         -----
  bond angle:     C          C          C            120.613
  bond angle:     C          C          N            119.693
  bond angle:     C          C          N            119.693
  bond angle:     C          C          C            119.432
  bond angle:     C          C          H            121.373
  bond angle:     C          C          H            119.195
  bond angle:     C          C          C            120.095
  bond angle:     C          C          H            119.991
  bond angle:     C          C          H            119.914
  bond angle:     C          C          C            120.332
  bond angle:     C          C          H            119.834
  bond angle:     C          C          H            119.834
  bond angle:     C          C          C            120.095
  bond angle:     C          C          H            119.914
  bond angle:     C          C          H            119.991
  bond angle:     C          C          C            119.432
  bond angle:     C          C          H            121.373
  bond angle:     C          C          H            119.195
  bond angle:     C          N          O            117.761
  bond angle:     C          N          O            117.761
  bond angle:     O          N          O            124.478




 Principal moments of inertia (u*A**2) and principal axes
 --------------------------------------------------------

   IA     128.083069          0.000000    0.000000    1.000000
   IB     398.073290          0.000000    1.000000   -0.000000
   IC     526.156360          1.000000    0.000000    0.000000


 Rotational constants
 --------------------

@    The molecule is planar.

               A                   B                   C

           3945.7128           1269.5627            960.5111 MHz
            0.131615            0.042348            0.032039 cm-1


@  Nuclear repulsion energy :  410.144972628146 Hartree


  Symmetry Orbitals
  -----------------

  Number of orbitals in each symmetry:         206   82


  Symmetry  A' ( 1)

    1     C        1s         1
    2     C        1s         2
    3     C        1s         3
    4     C        1s         4
    5     C        1s         5
    6     C        2py        7
    7     C        2pz        8
    8     C        2py       10
    9     C        2pz       11
   10     C        2py       13
   11     C        2pz       14
   12     C        2py       16
   13     C        2pz       17
   14     C        3d1-      19
   15     C        3d0       20
   16     C        3d2+      22
   17     C        3d1-      24
   18     C        3d0       25
   19     C        3d2+      27
   20     C        1s        28
   21     C        1s        29
   22     C        1s        30
   23     C        1s        31
   24     C        1s        32
   25     C        2py       34
   26     C        2pz       35
   27     C        2py       37
   28     C        2pz       38
   29     C        2py       40
   30     C        2pz       41
   31     C        2py       43
   32     C        2pz       44
   33     C        3d1-      46
   34     C        3d0       47
   35     C        3d2+      49
   36     C        3d1-      51
   37     C        3d0       52
   38     C        3d2+      54
   39     C        1s        55
   40     C        1s        56
   41     C        1s        57
   42     C        1s        58
   43     C        1s        59
   44     C        2py       61
   45     C        2pz       62
   46     C        2py       64
   47     C        2pz       65
   48     C        2py       67
   49     C        2pz       68
   50     C        2py       70
   51     C        2pz       71
   52     C        3d1-      73
   53     C        3d0       74
   54     C        3d2+      76
   55     C        3d1-      78
   56     C        3d0       79
   57     C        3d2+      81
   58     C        1s        82
   59     C        1s        83
   60     C        1s        84
   61     C        1s        85
   62     C        1s        86
   63     C        2py       88
   64     C        2pz       89
   65     C        2py       91
   66     C        2pz       92
   67     C        2py       94
   68     C        2pz       95
   69     C        2py       97
   70     C        2pz       98
   71     C        3d1-     100
   72     C        3d0      101
   73     C        3d2+     103
   74     C        3d1-     105
   75     C        3d0      106
   76     C        3d2+     108
   77     C        1s       109
   78     C        1s       110
   79     C        1s       111
   80     C        1s       112
   81     C        1s       113
   82     C        2py      115
   83     C        2pz      116
   84     C        2py      118
   85     C        2pz      119
   86     C        2py      121
   87     C        2pz      122
   88     C        2py      124
   89     C        2pz      125
   90     C        3d1-     127
   91     C        3d0      128
   92     C        3d2+     130
   93     C        3d1-     132
   94     C        3d0      133
   95     C        3d2+     135
   96     C        1s       136
   97     C        1s       137
   98     C        1s       138
   99     C        1s       139
  100     C        1s       140
  101     C        2py      142
  102     C        2pz      143
  103     C        2py      145
  104     C        2pz      146
  105     C        2py      148
  106     C        2pz      149
  107     C        2py      151
  108     C        2pz      152
  109     C        3d1-     154
  110     C        3d0      155
  111     C        3d2+     157
  112     C        3d1-     159
  113     C        3d0      160
  114     C        3d2+     162
  115     N        1s       163
  116     N        1s       164
  117     N        1s       165
  118     N        1s       166
  119     N        1s       167
  120     N        2py      169
  121     N        2pz      170
  122     N        2py      172
  123     N        2pz      173
  124     N        2py      175
  125     N        2pz      176
  126     N        2py      178
  127     N        2pz      179
  128     N        3d1-     181
  129     N        3d0      182
  130     N        3d2+     184
  131     N        3d1-     186
  132     N        3d0      187
  133     N        3d2+     189
  134     O        1s       190
  135     O        1s       191
  136     O        1s       192
  137     O        1s       193
  138     O        1s       194
  139     O        2py      196
  140     O        2pz      197
  141     O        2py      199
  142     O        2pz      200
  143     O        2py      202
  144     O        2pz      203
  145     O        2py      205
  146     O        2pz      206
  147     O        3d1-     208
  148     O        3d0      209
  149     O        3d2+     211
  150     O        3d1-     213
  151     O        3d0      214
  152     O        3d2+     216
  153     O        1s       217
  154     O        1s       218
  155     O        1s       219
  156     O        1s       220
  157     O        1s       221
  158     O        2py      223
  159     O        2pz      224
  160     O        2py      226
  161     O        2pz      227
  162     O        2py      229
  163     O        2pz      230
  164     O        2py      232
  165     O        2pz      233
  166     O        3d1-     235
  167     O        3d0      236
  168     O        3d2+     238
  169     O        3d1-     240
  170     O        3d0      241
  171     O        3d2+     243
  172     H        1s       244
  173     H        1s       245
  174     H        1s       246
  175     H        2py      248
  176     H        2pz      249
  177     H        2py      251
  178     H        2pz      252
  179     H        1s       253
  180     H        1s       254
  181     H        1s       255
  182     H        2py      257
  183     H        2pz      258
  184     H        2py      260
  185     H        2pz      261
  186     H        1s       262
  187     H        1s       263
  188     H        1s       264
  189     H        2py      266
  190     H        2pz      267
  191     H        2py      269
  192     H        2pz      270
  193     H        1s       271
  194     H        1s       272
  195     H        1s       273
  196     H        2py      275
  197     H        2pz      276
  198     H        2py      278
  199     H        2pz      279
  200     H        1s       280
  201     H        1s       281
  202     H        1s       282
  203     H        2py      284
  204     H        2pz      285
  205     H        2py      287
  206     H        2pz      288


  Symmetry  A" ( 2)

  207     C        2px        6
  208     C        2px        9
  209     C        2px       12
  210     C        2px       15
  211     C        3d2-      18
  212     C        3d1+      21
  213     C        3d2-      23
  214     C        3d1+      26
  215     C        2px       33
  216     C        2px       36
  217     C        2px       39
  218     C        2px       42
  219     C        3d2-      45
  220     C        3d1+      48
  221     C        3d2-      50
  222     C        3d1+      53
  223     C        2px       60
  224     C        2px       63
  225     C        2px       66
  226     C        2px       69
  227     C        3d2-      72
  228     C        3d1+      75
  229     C        3d2-      77
  230     C        3d1+      80
  231     C        2px       87
  232     C        2px       90
  233     C        2px       93
  234     C        2px       96
  235     C        3d2-      99
  236     C        3d1+     102
  237     C        3d2-     104
  238     C        3d1+     107
  239     C        2px      114
  240     C        2px      117
  241     C        2px      120
  242     C        2px      123
  243     C        3d2-     126
  244     C        3d1+     129
  245     C        3d2-     131
  246     C        3d1+     134
  247     C        2px      141
  248     C        2px      144
  249     C        2px      147
  250     C        2px      150
  251     C        3d2-     153
  252     C        3d1+     156
  253     C        3d2-     158
  254     C        3d1+     161
  255     N        2px      168
  256     N        2px      171
  257     N        2px      174
  258     N        2px      177
  259     N        3d2-     180
  260     N        3d1+     183
  261     N        3d2-     185
  262     N        3d1+     188
  263     O        2px      195
  264     O        2px      198
  265     O        2px      201
  266     O        2px      204
  267     O        3d2-     207
  268     O        3d1+     210
  269     O        3d2-     212
  270     O        3d1+     215
  271     O        2px      222
  272     O        2px      225
  273     O        2px      228
  274     O        2px      231
  275     O        3d2-     234
  276     O        3d1+     237
  277     O        3d2-     239
  278     O        3d1+     242
  279     H        2px      247
  280     H        2px      250
  281     H        2px      256
  282     H        2px      259
  283     H        2px      265
  284     H        2px      268
  285     H        2px      274
  286     H        2px      277
  287     H        2px      283
  288     H        2px      286

  Symmetries of electric field:  A" (2)  A' (1)  A' (1)

  Symmetries of magnetic field:  A' (1)  A" (2)  A" (2)


                     .---------------------------------------.
                     | Starting in Integral Section (HERMIT) |
                     `---------------------------------------'



 ***************************************************************************************
 ****************** Output from **INTEGRALS input processing (HERMIT) ******************
 ***************************************************************************************


 - Using defaults, no **INTEGRALS input found

 Default print level:        1

 Calculation of one- and two-electron Hamiltonian integrals.

 Center of mass  (bohr):      0.000000000000     -0.000000048948      0.000000000000
 Operator center (bohr):      0.000000000000      0.000000000000      0.000000000000
 Gauge origin    (bohr):      0.000000000000     -0.000000048948      0.000000000000
 Dipole origin   (bohr):      0.000000000000     -0.000000048948      0.000000000000


     ************************************************************************
     ************************** Output from HERINT **************************
     ************************************************************************



                      Nuclear contribution to dipole moments
                      --------------------------------------

                 au               Debye          C m (/(10**-30)

      y     -0.00000895        -0.00002275        -0.00007588
      z     -7.96794794       -20.25250226       -67.55507592


  Time used in ONEDRV     is       0.16 seconds

 Threshold for neglecting two-electron integrals:  1.00D-12
 HERMIT - Number of two-electron integrals written:   393358027 ( 45.4% )
 HERMIT - Megabytes written:                           6004.671

  Time used in TWOINT     is      1 minute  17 seconds
  Total CPU  time used in HERMIT:  1 minute  18 seconds
  Total wall time used in HERMIT:  1 minute  24 seconds


                        .----------------------------------.
                        | End of Integral Section (HERMIT) |
                        `----------------------------------'



                   .--------------------------------------------.
                   | Starting in Wave Function Section (SIRIUS) |
                   `--------------------------------------------'


 *** Output from Huckel module :

     Using EWMO model:          T
     Using EHT  model:          F
     Number of Huckel orbitals each symmetry:   41    9

 EWMO - Energy Weighted Maximum Overlap - is a Huckel type method,
        which normally is better than Extended Huckel Theory.
 Reference: Linderberg and Ohrn, Propagators in Quantum Chemistry (Wiley, 1973)

 Huckel EWMO eigenvalues for symmetry :  1
          -20.684733     -20.683414     -15.676879     -11.364307     -11.354208
          -11.354019     -11.347608     -11.347606     -11.344101      -2.010240
           -1.853241      -1.523853      -1.380002      -1.362355      -1.023752
           -0.984115      -0.924119      -0.820832      -0.672842      -0.667903
           -0.607485      -0.571442      -0.537167      -0.492272      -0.482903
           -0.411680      -0.405757      -0.230132      -0.202930      -0.166525
           -0.134099      -0.122942      -0.121509      -0.120995      -0.118512
           -0.101801      -0.100155      -0.098535      -0.094893      -0.083417
           -0.075420

 Huckel EWMO eigenvalues for symmetry :  2
           -0.891891      -0.736051      -0.586700      -0.476874      -0.475002
           -0.347159      -0.250032      -0.238573      -0.180218

INFO: no P-SUPMAT because more than 255 basis functions

 **********************************************************************
 *SIRIUS* a direct, restricted step, second order MCSCF program       *
 **********************************************************************

 
     Date and time (Linux)  : Wed Aug 28 16:45:06 2019
     Host name              : Lab2-333-NPs                            

 Title lines from ".mol" input file:
      nitrobenzene                                                           
      Generated by the Dalton Input File Plugin for Avogadro                 

 Print level on unit LUPRI =   2 is   0
 Print level on unit LUW4  =   2 is   5

@    Restricted, closed shell Hartree-Fock calculation.

@    Time-dependent Hartree-Fock calculation (random phase approximation).

 Initial molecular orbitals are obtained according to
 ".MOSTART EWMO  " input option

     Wave function specification
     ============================
@    Wave function type        --- HF ---
@    Number of closed shell electrons          64
@    Number of electrons in active shells       0
@    Total charge of the molecule               0

@    Spin multiplicity and 2 M_S                1         0
@    Total number of symmetries                 2 (point group: Cs )
@    Reference state symmetry                   1 (irrep name : A' )

     Orbital specifications
     ======================
@    Abelian symmetry species          All |    1    2
@                                          |  A'   A" 
                                       --- |  ---  ---
@    Total number of orbitals          288 |  206   82
@    Number of basis functions         288 |  206   82

      ** Automatic occupation of RHF orbitals **

      -- Initial occupation of symmetries is determined from extended Huckel guess.           
      -- Initial occupation of symmetries is :
@    Occupied SCF orbitals              32 |   27    5

     Maximum number of Fock   iterations      0
     Maximum number of DIIS   iterations     60
     Maximum number of QC-SCF iterations     60
     Threshold for SCF convergence     1.00D-05

    INFORMATION: Switched to "new" integral transformation (from 1988 ;-) )
    because more than 255 basis functions.


 ***********************************************
 ***** DIIS acceleration of SCF iterations *****
 ***********************************************

 C1-DIIS algorithm; max error vectors =    8

 Automatic occupation of symmetries with  64 electrons.

 Iter     Total energy    Error norm  Delta(E)    SCF occupation
 -----------------------------------------------------------------------------
@  1  -432.454877936       5.58D+00  -4.32D+02    27   5
      Virial theorem: -V/T =      2.004755
@    MULPOP   C       0.44; C       0.21; C       0.24; C       0.29; C       0.24; C       0.21; N       1.39; O      -1.02; O      -1.02; H      -0.21; 
@             H      -0.19; H      -0.19; H      -0.19; H      -0.21; 
   1  Level shift: doubly occupied orbital energies shifted by -2.00D-01
 -----------------------------------------------------------------------------
@  2  -433.821354609       3.00D+00  -1.37D+00    27   5
      Virial theorem: -V/T =      2.001456
@    MULPOP   C       0.97; C       0.43; C       0.25; C       0.40; C       0.25; C       0.43; N       0.28; O      -0.50; O      -0.50; H      -0.40; 
@             H      -0.41; H      -0.41; H      -0.41; H      -0.40; 
   2  Level shift: doubly occupied orbital energies shifted by -2.00D-01
 -----------------------------------------------------------------------------
@  3  -434.212184622       4.62D-01  -3.91D-01    27   5
      Virial theorem: -V/T =      2.001411
@    MULPOP   C       1.61; C       0.34; C       0.33; C       0.32; C       0.33; C       0.34; N       0.55; O      -0.82; O      -0.82; H      -0.44; 
@             H      -0.44; H      -0.43; H      -0.44; H      -0.44; 
   3  Level shift: doubly occupied orbital energies shifted by -5.00D-02
 -----------------------------------------------------------------------------
@  4  -434.228141030       1.76D-01  -1.60D-02    27   5
      Virial theorem: -V/T =      2.003028
@    MULPOP   C       1.78; C       0.31; C       0.39; C       0.31; C       0.39; C       0.31; N       0.50; O      -0.85; O      -0.85; H      -0.45; 
@             H      -0.46; H      -0.45; H      -0.46; H      -0.45; 
   4  Level shift: doubly occupied orbital energies shifted by -2.50D-02
 -----------------------------------------------------------------------------
@  5  -434.230621210       5.02D-02  -2.48D-03    27   5
      Virial theorem: -V/T =      2.002535
@    MULPOP   C       1.81; C       0.29; C       0.38; C       0.29; C       0.38; C       0.29; N       0.49; O      -0.86; O      -0.86; H      -0.44; 
@             H      -0.45; H      -0.44; H      -0.45; H      -0.44; 
   5  Level shift: doubly occupied orbital energies shifted by -1.25D-02
 -----------------------------------------------------------------------------
@  6  -434.230879921       1.47D-02  -2.59D-04    27   5
      Virial theorem: -V/T =      2.002452
@    MULPOP   C       1.82; C       0.28; C       0.38; C       0.29; C       0.38; C       0.28; N       0.48; O      -0.86; O      -0.86; H      -0.44; 
@             H      -0.45; H      -0.44; H      -0.45; H      -0.44; 
 -----------------------------------------------------------------------------
@  7  -434.230913144       6.12D-03  -3.32D-05    27   5
      Virial theorem: -V/T =      2.002482
@    MULPOP   C       1.83; C       0.28; C       0.38; C       0.28; C       0.38; C       0.28; N       0.48; O      -0.86; O      -0.86; H      -0.43; 
@             H      -0.45; H      -0.44; H      -0.45; H      -0.43; 
 -----------------------------------------------------------------------------
@  8  -434.230919435       2.70D-03  -6.29D-06    27   5
      Virial theorem: -V/T =      2.002470
@    MULPOP   C       1.83; C       0.28; C       0.38; C       0.28; C       0.38; C       0.28; N       0.48; O      -0.86; O      -0.86; H      -0.43; 
@             H      -0.45; H      -0.44; H      -0.45; H      -0.43; 
 -----------------------------------------------------------------------------
@  9  -434.230920939       1.18D-03  -1.50D-06    27   5
      Virial theorem: -V/T =      2.002467
@    MULPOP   C       1.84; C       0.28; C       0.38; C       0.28; C       0.38; C       0.28; N       0.47; O      -0.86; O      -0.86; H      -0.43; 
@             H      -0.45; H      -0.44; H      -0.45; H      -0.43; 
 -----------------------------------------------------------------------------
@ 10  -434.230921263       4.98D-04  -3.24D-07    27   5
      Virial theorem: -V/T =      2.002469
@    MULPOP   C       1.84; C       0.27; C       0.38; C       0.28; C       0.38; C       0.27; N       0.48; O      -0.86; O      -0.86; H      -0.43; 
@             H      -0.45; H      -0.44; H      -0.45; H      -0.43; 
 -----------------------------------------------------------------------------
@ 11  -434.230921358       1.80D-04  -9.48D-08    27   5
      Virial theorem: -V/T =      2.002468
@    MULPOP   C       1.84; C       0.27; C       0.38; C       0.28; C       0.38; C       0.27; N       0.48; O      -0.86; O      -0.86; H      -0.43; 
@             H      -0.45; H      -0.44; H      -0.45; H      -0.43; 
 -----------------------------------------------------------------------------
@ 12  -434.230921371       5.80D-05  -1.31D-08    27   5
      Virial theorem: -V/T =      2.002468
@    MULPOP   C       1.84; C       0.27; C       0.39; C       0.28; C       0.39; C       0.27; N       0.48; O      -0.86; O      -0.86; H      -0.43; 
@             H      -0.45; H      -0.44; H      -0.45; H      -0.43; 
 -----------------------------------------------------------------------------
@ 13  -434.230921372       2.27D-05  -1.16D-09    27   5
      Virial theorem: -V/T =      2.002469
@    MULPOP   C       1.84; C       0.27; C       0.39; C       0.28; C       0.39; C       0.27; N       0.48; O      -0.86; O      -0.86; H      -0.43; 
@             H      -0.45; H      -0.44; H      -0.45; H      -0.43; 
 -----------------------------------------------------------------------------
@ 14  -434.230921372       8.76D-06  -9.29D-11    27   5

@ *** DIIS converged in  14 iterations !
@     Converged SCF energy, gradient:   -434.230921372179    8.76D-06
    - total time used in SIRFCK :              0.00 seconds


 *** SCF orbital energy analysis ***

 Only the 20 lowest virtual orbital energies printed in each symmetry.

 Number of electrons :   64
 Orbital occupations :   27    5

 Sym       Hartree-Fock orbital energies

1 A'    -20.61578480   -20.61573518   -15.86358588   -11.32441271   -11.28894720
        -11.28891085   -11.28391238   -11.27570328   -11.27560624    -1.59837862
         -1.39514401    -1.20054336    -1.09764277    -1.05445016    -0.96692699
         -0.86537256    -0.83381098    -0.78066030    -0.72797160    -0.70916979
         -0.65692279    -0.65263626    -0.62386232    -0.55502305    -0.53227449
         -0.49906034    -0.49479933     0.02619021     0.03570557     0.04389845
          0.05962683     0.06226956     0.10462541     0.13042437     0.13064944
          0.13371686     0.13481424     0.15059185     0.15244877     0.15636010
          0.17275864     0.17298764     0.18051193     0.18341610     0.21395756
          0.21541405     0.25790424

2 A"     -0.71271641    -0.53582515    -0.45438051    -0.37875078    -0.36959276
          0.02796318     0.08476355     0.10671106     0.12323952     0.13105804
          0.13882928     0.18383470     0.18576976     0.19127352     0.24642152
          0.29800705     0.31837439     0.33976433     0.37184308     0.41143768
          0.44399063     0.49022905     0.53300414     0.54569981     0.58617523

    E(LUMO) :     0.02619021 au (symmetry 1)
  - E(HOMO) :    -0.36959276 au (symmetry 2)
  ------------------------------------------
    gap     :     0.39578298 au

 --- Writing SIRIFC interface file

 CPU and wall time for SCF :     157.031     157.079


                       .-----------------------------------.
                       | --- Final results from SIRIUS --- |
                       `-----------------------------------'


@    Spin multiplicity:           1
@    Spatial symmetry:            1 ( irrep  A'  in Cs  )
@    Total charge of molecule:    0

@    Final HF energy:            -434.230921372179                 
@    Nuclear repulsion:           410.144972628146
@    Electronic energy:          -844.375894000325

@    Final gradient norm:           0.000008762383

 
     Date and time (Linux)  : Wed Aug 28 16:47:43 2019
     Host name              : Lab2-333-NPs                            

File label for MO orbitals:  28Aug19   FOCKDIIS

 (Only coefficients > 0.0100 are printed.)

 Molecular orbitals for symmetry species 1  (A' )
 ------------------------------------------------

    Orbital        18       19       20       21       22       23       24
   2 C   :1s    -0.1333  -0.0000  -0.0079  -0.0000  -0.2779   0.0000   0.0909
   3 C   :1s    -0.3033   0.0000  -0.1467  -0.0000  -0.1351   0.0000   0.1652
   5 C   :1s    -0.3234   0.0000  -1.0451   0.0000   0.7041  -0.0000  -0.1877
   6 C   :2py   -0.0000  -0.1247   0.0000   0.4096  -0.0000  -0.1276  -0.0000
   7 C   :2pz    0.2900  -0.0000   0.0926   0.0000   0.1328  -0.0000   0.0161
   8 C   :2py    0.0000  -0.0786  -0.0000  -0.3345   0.0000   0.0733   0.0000
   9 C   :2pz   -0.0703   0.0000   0.0522  -0.0000  -0.0037   0.0000  -0.0815
  12 C   :2py   -0.0000  -0.0307  -0.0000   0.0368   0.0000   0.2165   0.0000
  13 C   :2pz   -0.0530  -0.0000   0.1285  -0.0000  -0.0935   0.0000  -0.1281
  14 C   :3d1-   0.0000  -0.0077  -0.0000  -0.0139   0.0000   0.0214   0.0000
  15 C   :3d0    0.0150  -0.0000   0.0275   0.0000   0.0003   0.0000  -0.0212
  16 C   :3d2+   0.0057  -0.0000   0.0144  -0.0000  -0.0015   0.0000  -0.0110
  17 C   :3d1-  -0.0000   0.2341   0.0000   0.1203  -0.0000  -0.0556  -0.0000
  18 C   :3d0    0.0286  -0.0000   0.0165   0.0000   0.0179  -0.0000  -0.0460
  19 C   :3d2+   0.0098  -0.0000   0.0125   0.0000   0.0002  -0.0000  -0.0251
  21 C   :1s     0.0116  -0.0622  -0.1611   0.0054   0.1330   0.0660  -0.0602
  22 C   :1s    -0.0679  -0.3170   0.0162  -0.1200   0.0148   0.0893  -0.0634
  24 C   :1s     0.1514   0.1874   0.8679  -0.0555  -0.8554   0.2228   0.0321
  25 C   :2py   -0.2300   0.0854   0.1561  -0.2138  -0.2399   0.3024  -0.0931
  26 C   :2pz   -0.0122   0.0756  -0.2273  -0.3268  -0.0166  -0.2598   0.3363
  27 C   :2py    0.1100  -0.2078  -0.0555  -0.0981   0.0732  -0.0331   0.0037
  28 C   :2pz    0.1740   0.0733   0.2293  -0.0560  -0.0339   0.1061  -0.1711
  31 C   :2py    0.0536   0.0140   0.1453  -0.0276  -0.1081   0.0241   0.0599
  32 C   :2pz    0.0237  -0.0761  -0.0746  -0.0110   0.1320   0.0731   0.0635
  33 C   :3d1-  -0.0002   0.0032   0.0056  -0.0080  -0.0246   0.0031  -0.0039
  34 C   :3d0    0.0094  -0.0027   0.0132   0.0070   0.0037   0.0117  -0.0113
  36 C   :3d1-   0.0608   0.0192  -0.0277   0.0014   0.0852  -0.0540  -0.0036
  37 C   :3d0   -0.0422   0.0448  -0.0631   0.0474   0.0028  -0.0591   0.0381
  38 C   :3d2+  -0.0155   0.0242  -0.0354   0.0252   0.0078  -0.0344   0.0207
  40 C   :1s     0.1141   0.0360   0.1648  -0.0054  -0.1208   0.0649   0.0387
  41 C   :1s     0.1409   0.0295   0.1757  -0.0348   0.0358   0.0633  -0.0605
  43 C   :1s    -0.2650  -0.1608  -0.8437   0.0606   0.9372   0.0554  -0.1786
  44 C   :2py   -0.1773   0.0439   0.1103  -0.2025   0.3133   0.2688   0.0771
  45 C   :2pz   -0.0308  -0.1225   0.1004   0.3236   0.1567   0.2583  -0.3392
  46 C   :2py    0.1227   0.0309  -0.0063   0.1222  -0.0985  -0.1448   0.0392
  47 C   :2pz    0.1312   0.1049   0.0490  -0.1876  -0.0748   0.0026  -0.0381
  50 C   :2py   -0.0667   0.0017  -0.1565   0.0160   0.1156  -0.0212  -0.0796
  51 C   :2pz   -0.0029  -0.0788  -0.0773   0.0109   0.1194   0.0210   0.0146
  52 C   :3d1-   0.0002  -0.0007   0.0111   0.0048  -0.0232  -0.0004   0.0003
  53 C   :3d0    0.0016  -0.0025  -0.0067   0.0080   0.0024   0.0119  -0.0256
  54 C   :3d2+  -0.0009  -0.0026  -0.0051   0.0045   0.0009   0.0067  -0.0143
  55 C   :3d1-  -0.0132   0.0253  -0.0332  -0.0063   0.0957   0.0190  -0.0223
  56 C   :3d0    0.0376   0.0227   0.0397  -0.0389  -0.0328  -0.0144   0.0236
  57 C   :3d2+   0.0191   0.0096   0.0226  -0.0234  -0.0236  -0.0105   0.0110
  59 C   :1s    -0.0820   0.0000  -0.1716   0.0000   0.1869  -0.0000   0.0405
  60 C   :1s     0.0146  -0.0000   0.0519   0.0000   0.0672   0.0000  -0.0219
  62 C   :1s     0.3752  -0.0000   0.9069  -0.0000  -0.7325   0.0000   0.4073
  63 C   :2py    0.0000  -0.1377  -0.0000   0.3922  -0.0000  -0.0937   0.0000
  64 C   :2pz   -0.0737  -0.0000   0.4131   0.0000   0.1825   0.0000   0.4649
  65 C   :2py   -0.0000   0.0127   0.0000   0.0128  -0.0000  -0.0699  -0.0000
  66 C   :2pz    0.0077   0.0000  -0.1683  -0.0000  -0.0465   0.0000  -0.1534
  69 C   :2py    0.0000   0.0378   0.0000   0.0143  -0.0000  -0.0211  -0.0000
  70 C   :2pz    0.0775  -0.0000   0.1605  -0.0000  -0.1706   0.0000   0.0189
  71 C   :3d1-   0.0000  -0.0039  -0.0000   0.0117  -0.0000  -0.0199   0.0000
  72 C   :3d0   -0.0045   0.0000  -0.0114   0.0000   0.0126  -0.0000  -0.0327
  73 C   :3d2+  -0.0016   0.0000  -0.0064   0.0000   0.0075  -0.0000  -0.0183
  74 C   :3d1-  -0.0000   0.0106  -0.0000   0.0218   0.0000   0.0014  -0.0000
  75 C   :3d0    0.0109  -0.0000   0.0884  -0.0000  -0.0320   0.0000   0.0883
  76 C   :3d2+   0.0114  -0.0000   0.0513  -0.0000  -0.0179   0.0000   0.0530
  78 C   :1s     0.1141  -0.0360   0.1648   0.0054  -0.1208  -0.0649   0.0387
  79 C   :1s     0.1409  -0.0295   0.1758   0.0348   0.0358  -0.0633  -0.0605
  81 C   :1s    -0.2650   0.1608  -0.8437  -0.0606   0.9372  -0.0554  -0.1785
  82 C   :2py    0.1773   0.0439  -0.1103  -0.2025  -0.3133   0.2688  -0.0771
  83 C   :2pz   -0.0308   0.1225   0.1004  -0.3236   0.1567  -0.2583  -0.3392
  84 C   :2py   -0.1227   0.0309   0.0063   0.1222   0.0985  -0.1448  -0.0392
  85 C   :2pz    0.1312  -0.1049   0.0490   0.1876  -0.0748  -0.0026  -0.0381
  88 C   :2py    0.0667   0.0017   0.1565   0.0160  -0.1156  -0.0212   0.0796
  89 C   :2pz   -0.0029   0.0788  -0.0773  -0.0109   0.1194  -0.0210   0.0146
  90 C   :3d1-  -0.0002  -0.0007  -0.0111   0.0048   0.0232  -0.0004  -0.0003
  91 C   :3d0    0.0016   0.0025  -0.0067  -0.0080   0.0024  -0.0119  -0.0256
  92 C   :3d2+  -0.0009   0.0026  -0.0051  -0.0045   0.0009  -0.0067  -0.0143
  93 C   :3d1-   0.0132   0.0253   0.0332  -0.0063  -0.0957   0.0190   0.0223
  94 C   :3d0    0.0376  -0.0227   0.0397   0.0389  -0.0328   0.0144   0.0236
  95 C   :3d2+   0.0191  -0.0096   0.0226   0.0234  -0.0236   0.0105   0.0110
  97 C   :1s     0.0116   0.0622  -0.1611  -0.0054   0.1330  -0.0660  -0.0602
  98 C   :1s    -0.0679   0.3170   0.0162   0.1200   0.0148  -0.0894  -0.0634
 100 C   :1s     0.1514  -0.1874   0.8679   0.0555  -0.8554  -0.2228   0.0321
 101 C   :2py    0.2300   0.0854  -0.1561  -0.2138   0.2399   0.3024   0.0931
 102 C   :2pz   -0.0122  -0.0756  -0.2273   0.3268  -0.0167   0.2598   0.3363
 103 C   :2py   -0.1100  -0.2078   0.0555  -0.0981  -0.0732  -0.0331  -0.0037
 104 C   :2pz    0.1740  -0.0733   0.2293   0.0560  -0.0339  -0.1061  -0.1711
 107 C   :2py   -0.0536   0.0140  -0.1453  -0.0276   0.1081   0.0241  -0.0599
 108 C   :2pz    0.0237   0.0761  -0.0746   0.0110   0.1320  -0.0731   0.0635
 109 C   :3d1-   0.0002   0.0032  -0.0056  -0.0080   0.0246   0.0031   0.0039
 110 C   :3d0    0.0094   0.0027   0.0132  -0.0070   0.0037  -0.0117  -0.0113
 112 C   :3d1-  -0.0608   0.0192   0.0277   0.0014  -0.0852  -0.0540   0.0036
 113 C   :3d0   -0.0422  -0.0448  -0.0631  -0.0474   0.0028   0.0591   0.0382
 114 C   :3d2+  -0.0155  -0.0242  -0.0354  -0.0252   0.0078   0.0344   0.0207
 116 N   :1s    -0.1476   0.0000   0.0030   0.0000   0.0591  -0.0000  -0.0617
 117 N   :1s     0.0530   0.0000  -0.0106  -0.0000  -0.0048   0.0000   0.0471
 119 N   :1s     0.1059  -0.0000   0.1434  -0.0000  -0.1091   0.0000   0.1706
 120 N   :2py   -0.0000  -0.5393  -0.0000  -0.2076   0.0000  -0.0123   0.0000
 121 N   :2pz   -0.4240   0.0000  -0.2387  -0.0000  -0.0563   0.0000   0.0815
 122 N   :2py   -0.0000   0.0214   0.0000  -0.0035   0.0000   0.0111  -0.0000
 123 N   :2pz    0.0716  -0.0000   0.0387   0.0000   0.0287  -0.0000  -0.0227
 126 N   :2py   -0.0000   0.0084   0.0000  -0.0838   0.0000  -0.0469  -0.0000
 127 N   :2pz   -0.0261   0.0000  -0.0801  -0.0000  -0.0086  -0.0000   0.0359
 128 N   :3d1-   0.0000  -0.0128  -0.0000  -0.0185   0.0000  -0.0033   0.0000
 129 N   :3d0   -0.0056   0.0000  -0.0047  -0.0000  -0.0093   0.0000   0.0138
 131 N   :3d1-   0.0000   0.0468   0.0000  -0.0320   0.0000   0.0194   0.0000
 132 N   :3d0    0.0358  -0.0000   0.0176   0.0000   0.0012  -0.0000  -0.0046
 133 N   :3d2+   0.0139  -0.0000   0.0040  -0.0000  -0.0011   0.0000  -0.0005
 135 O   :1s     0.1922  -0.2912   0.0740  -0.0673  -0.0166   0.0144  -0.0145
 136 O   :1s     0.0514  -0.0822   0.0251  -0.0571  -0.0110   0.0114  -0.0064
 138 O   :1s     0.0293  -0.0173   0.0239  -0.0660   0.0045  -0.0128  -0.0513
 139 O   :2py   -0.3112   0.3214  -0.1437   0.1716  -0.0412   0.0434   0.0742
 140 O   :2pz   -0.0809  -0.3238  -0.0543  -0.0749  -0.1170   0.0585   0.1489
 141 O   :2py    0.0196  -0.0301   0.0074  -0.0265  -0.0063   0.0063   0.0012
 142 O   :2pz   -0.0181   0.0281  -0.0096   0.0023   0.0001   0.0061   0.0085
 146 O   :2pz   -0.0001  -0.0176   0.0070  -0.0021   0.0056   0.0014   0.0055
 147 O   :3d1-   0.0027  -0.0157  -0.0002  -0.0055  -0.0018  -0.0001   0.0027
 149 O   :3d2+   0.0104  -0.0084   0.0048  -0.0039   0.0010  -0.0006  -0.0018
 151 O   :3d0    0.0139   0.0024   0.0054   0.0043   0.0049  -0.0057  -0.0044
 152 O   :3d2+   0.0108  -0.0074   0.0046  -0.0023   0.0023  -0.0029  -0.0022
 154 O   :1s     0.1922   0.2912   0.0740   0.0673  -0.0166  -0.0144  -0.0145
 155 O   :1s     0.0514   0.0822   0.0251   0.0571  -0.0110  -0.0114  -0.0064
 157 O   :1s     0.0293   0.0173   0.0239   0.0660   0.0045   0.0128  -0.0513
 158 O   :2py    0.3112   0.3214   0.1437   0.1716   0.0412   0.0434  -0.0742
 159 O   :2pz   -0.0809   0.3238  -0.0543   0.0749  -0.1170  -0.0585   0.1489
 160 O   :2py   -0.0196  -0.0301  -0.0074  -0.0265   0.0063   0.0063  -0.0012
 161 O   :2pz   -0.0181  -0.0281  -0.0096  -0.0023   0.0001  -0.0061   0.0085
 165 O   :2pz   -0.0001   0.0176   0.0070   0.0021   0.0056  -0.0014   0.0055
 166 O   :3d1-  -0.0027  -0.0157   0.0002  -0.0055   0.0018  -0.0001  -0.0027
 168 O   :3d2+   0.0104   0.0084   0.0048   0.0039   0.0010   0.0006  -0.0018
 170 O   :3d0    0.0139  -0.0024   0.0054  -0.0043   0.0049   0.0056  -0.0044
 171 O   :3d2+   0.0108   0.0074   0.0046   0.0023   0.0023   0.0029  -0.0022
 172 H   :1s     0.1725  -0.0735  -0.3035   0.0261   0.2720  -0.3424   0.2157
 173 H   :1s    -0.0749  -0.0326  -0.1005  -0.0002   0.0928  -0.0223   0.0188
 174 H   :1s     0.0175   0.0279   0.0350  -0.0052  -0.0393   0.0005   0.0132
 175 H   :2py    0.0068  -0.0026  -0.0121  -0.0018   0.0079  -0.0108   0.0077
 177 H   :2py   -0.0003  -0.0209  -0.0402   0.0053   0.0440  -0.0224   0.0155
 178 H   :2pz    0.0208  -0.0050   0.0384   0.0053  -0.0071   0.0201  -0.0272
 179 H   :1s     0.2047   0.0436  -0.0340   0.0091  -0.4108  -0.3204   0.1425
 180 H   :1s     0.0503   0.0289   0.1615  -0.0229  -0.1183   0.0159   0.0533
 181 H   :1s    -0.0127  -0.0203  -0.0531   0.0061   0.0416  -0.0080  -0.0062
 182 H   :2py    0.0078   0.0024  -0.0019  -0.0020  -0.0127  -0.0106   0.0070
 184 H   :2py    0.0238   0.0054   0.0304   0.0052  -0.0532  -0.0142   0.0183
 185 H   :2pz    0.0177   0.0177   0.0194  -0.0168  -0.0270  -0.0177   0.0265
 186 H   :1s     0.0183   0.0000  -0.4702  -0.0000  -0.0616  -0.0000  -0.4950
 187 H   :1s    -0.0670   0.0000  -0.0838   0.0000   0.1167  -0.0000  -0.1405
 188 H   :1s     0.0364  -0.0000   0.0394  -0.0000  -0.0438   0.0000  -0.0127
 190 H   :2pz    0.0006   0.0000  -0.0198  -0.0000  -0.0022  -0.0000  -0.0136
 191 H   :2py   -0.0000   0.0111   0.0000  -0.0103   0.0000   0.0036  -0.0000
 192 H   :2pz   -0.0177   0.0000  -0.0573   0.0000   0.0249  -0.0000  -0.0734
 193 H   :1s     0.2047  -0.0436  -0.0340  -0.0092  -0.4108   0.3204   0.1425
 194 H   :1s     0.0503  -0.0289   0.1615   0.0229  -0.1183  -0.0159   0.0533
 195 H   :1s    -0.0127   0.0203  -0.0531  -0.0061   0.0416   0.0080  -0.0062
 196 H   :2py   -0.0078   0.0024   0.0019  -0.0020   0.0127  -0.0106  -0.0070
 198 H   :2py   -0.0238   0.0054  -0.0304   0.0052   0.0532  -0.0142  -0.0183
 199 H   :2pz    0.0177  -0.0177   0.0194   0.0168  -0.0270   0.0177   0.0265
 200 H   :1s     0.1725   0.0735  -0.3035  -0.0261   0.2721   0.3424   0.2157
 201 H   :1s    -0.0749   0.0326  -0.1005   0.0002   0.0928   0.0223   0.0188
 202 H   :1s     0.0175  -0.0279   0.0350   0.0052  -0.0393  -0.0005   0.0132
 203 H   :2py   -0.0068  -0.0026   0.0121  -0.0018  -0.0079  -0.0108  -0.0077
 205 H   :2py    0.0003  -0.0209   0.0402   0.0053  -0.0440  -0.0224  -0.0155
 206 H   :2pz    0.0208   0.0050   0.0384  -0.0053  -0.0071  -0.0201  -0.0272

    Orbital        25       26       27       28       29       30       31
   2 C   :1s     0.0000   0.0668   0.0000   0.0150   0.0000   0.0239   0.0000
   3 C   :1s     0.0000   0.1328   0.0000  -0.8601  -0.0000  -0.6837  -0.0000
   5 C   :1s    -0.0000   0.2972  -0.0000  -0.8264  -0.0000  -5.7828  -0.0002
   6 C   :2py    0.3632   0.0000  -0.0449  -0.0000  -0.0008  -0.0000  -0.0185
   7 C   :2pz    0.0000   0.3390   0.0000   0.0024  -0.0000  -0.0215  -0.0000
   8 C   :2py   -0.1719  -0.0000   0.1282  -0.0000   0.7327   0.0000   0.6708
   9 C   :2pz   -0.0000  -0.2085  -0.0000   0.1312   0.0000  -0.1599   0.0000
  12 C   :2py   -0.0066   0.0000  -0.2034   0.0000   6.8788  -0.0000   2.7975
  13 C   :2pz   -0.0000  -0.1331  -0.0000   0.1292   0.0000   3.0456   0.0000
  14 C   :3d1-  -0.0198   0.0000  -0.0002   0.0000  -0.0002   0.0000   0.0004
  15 C   :3d0   -0.0000   0.0225   0.0000  -0.0006   0.0000  -0.0016   0.0000
  17 C   :3d1-   0.0415   0.0000  -0.0683   0.0000  -0.1164  -0.0000   0.3066
  18 C   :3d0    0.0000  -0.0326   0.0000   0.2479  -0.0000   0.2288  -0.0000
  19 C   :3d2+   0.0000  -0.0217   0.0000   0.1953  -0.0000   0.1974  -0.0000
  20 C   :1s    -0.0010   0.0021  -0.0007   0.0055  -0.0036  -0.0039  -0.0109
  21 C   :1s    -0.0035   0.0084   0.0465  -0.0068  -0.0287  -0.0596  -0.0819
  22 C   :1s    -0.0150  -0.0880   0.1441  -0.2478   0.4055   0.2287   0.5796
  24 C   :1s    -0.2298  -0.3814  -0.1413  -3.5432   2.3069   5.1977  10.3110
  25 C   :2py   -0.3211  -0.0906  -0.0332   0.0108   0.0337   0.0301   0.0376
  26 C   :2pz   -0.0150  -0.1145   0.0990  -0.0072  -0.0231  -0.0256  -0.0101
  27 C   :2py   -0.0092  -0.0466   0.1330   0.2708   0.5220   0.1614  -0.1331
  28 C   :2pz   -0.1586  -0.0485  -0.0930   0.5550   0.2549   0.0927  -0.2763
  31 C   :2py    0.0111  -0.0454  -0.0508  -0.3054   2.0029   1.4967   5.2906
  32 C   :2pz    0.0723   0.0775  -0.0893   1.1237   3.3316  -3.2274  -2.8277
  33 C   :3d1-  -0.0313   0.0012   0.0006  -0.0010   0.0011  -0.0012  -0.0024
  36 C   :3d1-   0.0588   0.0138  -0.0127   0.1702  -0.0126   0.1951   0.4488
  37 C   :3d0    0.0552   0.0229   0.0089  -0.0825  -0.0343   0.1086   0.2866
  38 C   :3d2+   0.0273   0.0161   0.0046   0.0066  -0.0380   0.0430   0.0682
  40 C   :1s     0.0165   0.0139  -0.0225  -0.0433  -0.0673  -0.0346   0.0476
  41 C   :1s    -0.0139  -0.0466  -0.0868   0.0632   0.7026   0.2075  -0.3185
  43 C   :1s     0.2069   0.3784   0.0576   1.9343   3.3666  -0.5759  -8.6421
  44 C   :2py    0.3644   0.0259   0.0150   0.0444   0.0542   0.0003  -0.0118
  45 C   :2pz   -0.0176   0.1215  -0.0690   0.0226   0.0293   0.0107  -0.0078
  46 C   :2py   -0.0200  -0.0093  -0.0477   0.0833   0.5405   0.3737   0.4700
  47 C   :2pz   -0.1383  -0.0369  -0.0646   0.6030  -0.2279  -0.4256  -0.4847
  50 C   :2py   -0.0255   0.0396   0.0546   0.8210   1.4533   2.2157  -4.0336
  51 C   :2pz    0.0448   0.0463  -0.0843   1.3213   3.2780  -0.7969  -2.1626
  52 C   :3d1-  -0.0312  -0.0053  -0.0026   0.0043   0.0015  -0.0011  -0.0025
  55 C   :3d1-   0.0711   0.0313  -0.0248   0.0669  -0.3321  -0.1068   0.3058
  56 C   :3d0   -0.0521  -0.0119  -0.0082   0.0424   0.0243   0.1062  -0.2481
  57 C   :3d2+  -0.0246  -0.0078  -0.0021   0.0642  -0.0314   0.0740  -0.0725
  59 C   :1s     0.0000   0.0177   0.0000  -0.0511   0.0000   0.0708  -0.0000
  60 C   :1s    -0.0000   0.0220  -0.0000   0.1307  -0.0000  -0.5849   0.0000
  62 C   :1s     0.0000  -0.3065   0.0000  -1.9336   0.0000  -7.8134   0.0001
  63 C   :2py   -0.3980   0.0000  -0.0506   0.0000  -0.0097   0.0000   0.0037
  64 C   :2pz    0.0000  -0.0468   0.0000   0.0687  -0.0000  -0.0494   0.0000
  65 C   :2py    0.0930   0.0000   0.0198   0.0000   1.2100  -0.0000   0.0370
  66 C   :2pz   -0.0000   0.0222  -0.0000   0.3513  -0.0000  -0.0909  -0.0000
  69 C   :2py   -0.0268  -0.0000   0.1174  -0.0000  -1.4637   0.0000  -0.6960
  70 C   :2pz    0.0000  -0.0705  -0.0000   0.7705  -0.0000  -4.4674   0.0000
  71 C   :3d1-  -0.0229   0.0000   0.0001   0.0000   0.0051  -0.0000  -0.0018
  74 C   :3d1-   0.0603   0.0000  -0.0162   0.0000   0.1916  -0.0000   0.2463
  75 C   :3d0    0.0000  -0.0214  -0.0000  -0.1865   0.0000   0.3145  -0.0000
  76 C   :3d2+  -0.0000  -0.0136  -0.0000  -0.0781   0.0000   0.2952  -0.0000
  78 C   :1s    -0.0165   0.0139   0.0225  -0.0433   0.0673  -0.0346  -0.0476
  79 C   :1s     0.0139  -0.0466   0.0868   0.0632  -0.7026   0.2075   0.3185
  81 C   :1s    -0.2069   0.3784  -0.0576   1.9343  -3.3666  -0.5759   8.6420
  82 C   :2py    0.3644  -0.0259   0.0150  -0.0444   0.0542  -0.0003  -0.0118
  83 C   :2pz    0.0176   0.1215   0.0690   0.0226  -0.0293   0.0107   0.0078
  84 C   :2py   -0.0200   0.0093  -0.0477  -0.0833   0.5405  -0.3737   0.4700
  85 C   :2pz    0.1383  -0.0369   0.0646   0.6030   0.2279  -0.4256   0.4847
  88 C   :2py   -0.0255  -0.0396   0.0546  -0.8210   1.4533  -2.2158  -4.0336
  89 C   :2pz   -0.0448   0.0463   0.0843   1.3212  -3.2780  -0.7969   2.1625
  90 C   :3d1-  -0.0312   0.0053  -0.0026  -0.0043   0.0015   0.0011  -0.0025
  93 C   :3d1-   0.0711  -0.0313  -0.0248  -0.0669  -0.3321   0.1068   0.3058
  94 C   :3d0    0.0521  -0.0119   0.0082   0.0424  -0.0243   0.1062   0.2481
  95 C   :3d2+   0.0246  -0.0078   0.0021   0.0642   0.0314   0.0740   0.0725
  96 C   :1s     0.0010   0.0021   0.0007   0.0055   0.0036  -0.0039   0.0109
  97 C   :1s     0.0035   0.0084  -0.0465  -0.0068   0.0287  -0.0596   0.0819
  98 C   :1s     0.0150  -0.0880  -0.1441  -0.2478  -0.4055   0.2287  -0.5796
 100 C   :1s     0.2298  -0.3814   0.1413  -3.5432  -2.3068   5.1977 -10.3108
 101 C   :2py   -0.3211   0.0906  -0.0332  -0.0108   0.0337  -0.0301   0.0376
 102 C   :2pz    0.0150  -0.1145  -0.0990  -0.0072   0.0231  -0.0256   0.0101
 103 C   :2py   -0.0092   0.0466   0.1330  -0.2708   0.5220  -0.1614  -0.1330
 104 C   :2pz    0.1586  -0.0485   0.0930   0.5550  -0.2549   0.0927   0.2763
 107 C   :2py    0.0111   0.0454  -0.0508   0.3054   2.0029  -1.4967   5.2905
 108 C   :2pz   -0.0723   0.0774   0.0893   1.1237  -3.3316  -3.2273   2.8277
 109 C   :3d1-  -0.0313  -0.0012   0.0006   0.0010   0.0011   0.0012  -0.0024
 112 C   :3d1-   0.0588  -0.0138  -0.0127  -0.1702  -0.0126  -0.1951   0.4488
 113 C   :3d0   -0.0552   0.0229  -0.0089  -0.0825   0.0343   0.1086  -0.2866
 114 C   :3d2+  -0.0273   0.0161  -0.0046   0.0066   0.0380   0.0430  -0.0682
 116 N   :1s    -0.0000   0.0215   0.0000   0.0048   0.0000   0.0183   0.0000
 117 N   :1s    -0.0000   0.0740   0.0000  -0.0588   0.0000  -0.1725   0.0000
 119 N   :1s     0.0000   0.0630   0.0000  -0.0314   0.0000  -0.6056   0.0000
 120 N   :2py   -0.0377   0.0000  -0.1002  -0.0000  -0.0059  -0.0000  -0.0172
 121 N   :2pz    0.0000  -0.2919  -0.0000  -0.0056  -0.0000   0.0087  -0.0000
 122 N   :2py    0.0081  -0.0000   0.0721  -0.0000  -0.0196   0.0000  -0.0566
 123 N   :2pz   -0.0000  -0.0496  -0.0000   0.0324  -0.0000  -0.0929  -0.0000
 126 N   :2py    0.0172  -0.0000   0.0571  -0.0000  -0.9577   0.0000  -0.4137
 127 N   :2pz    0.0000  -0.0077   0.0000  -0.4997  -0.0000  -0.8616  -0.0000
 128 N   :3d1-  -0.0059   0.0000  -0.0449  -0.0000  -0.0029   0.0000  -0.0022
 129 N   :3d0    0.0000   0.0497   0.0000  -0.0000  -0.0000  -0.0008   0.0000
 130 N   :3d2+   0.0000   0.0358   0.0000   0.0018   0.0000   0.0052  -0.0000
 131 N   :3d1-  -0.0377  -0.0000   0.0213   0.0000   0.0522   0.0000   0.1024
 132 N   :3d0    0.0000   0.0185   0.0000   0.0029   0.0000   0.0317  -0.0000
 133 N   :3d2+  -0.0000   0.0243   0.0000  -0.0298   0.0000   0.0207  -0.0000
 135 O   :1s    -0.0154   0.0101  -0.0024  -0.0067  -0.0076  -0.0360  -0.0272
 136 O   :1s    -0.0233   0.0476   0.0216  -0.0347   0.0151   0.0290   0.0223
 138 O   :1s     0.0020   0.0152   0.0217   0.0288  -0.2768   0.4789   0.1340
 139 O   :2py    0.0103   0.0707   0.4498   0.0001   0.0094  -0.0009   0.0202
 140 O   :2pz   -0.0699   0.5842   0.5120   0.0060   0.0000  -0.0018   0.0073
 141 O   :2py   -0.0117   0.0317   0.0324  -0.0201   0.0079   0.0388   0.0344
 142 O   :2pz   -0.0105   0.0172   0.0297   0.0080   0.0142  -0.0194   0.0154
 145 O   :2py    0.0058   0.0147   0.0294   0.0874   0.0777   0.1496   0.0924
 146 O   :2pz   -0.0021   0.0397   0.0434   0.1314  -0.0001  -0.0338  -0.1509
 150 O   :3d1-  -0.0040   0.0095   0.0025   0.0028   0.0016  -0.0115  -0.0048
 151 O   :3d0    0.0068  -0.0114  -0.0243  -0.0049  -0.0063  -0.0066  -0.0083
 152 O   :3d2+   0.0017  -0.0037  -0.0140   0.0030  -0.0045  -0.0074  -0.0048
 154 O   :1s     0.0154   0.0101   0.0024  -0.0067   0.0076  -0.0360   0.0272
 155 O   :1s     0.0233   0.0476  -0.0216  -0.0347  -0.0151   0.0290  -0.0223
 157 O   :1s    -0.0020   0.0152  -0.0217   0.0288   0.2768   0.4789  -0.1340
 158 O   :2py    0.0103  -0.0707   0.4498  -0.0001   0.0094   0.0009   0.0202
 159 O   :2pz    0.0699   0.5842  -0.5120   0.0060  -0.0000  -0.0018  -0.0073
 160 O   :2py   -0.0117  -0.0317   0.0324   0.0201   0.0079  -0.0388   0.0344
 161 O   :2pz    0.0105   0.0172  -0.0297   0.0080  -0.0142  -0.0194  -0.0154
 164 O   :2py    0.0058  -0.0147   0.0294  -0.0874   0.0777  -0.1496   0.0924
 165 O   :2pz    0.0021   0.0397  -0.0434   0.1314   0.0001  -0.0338   0.1509
 169 O   :3d1-  -0.0040  -0.0095   0.0025  -0.0028   0.0016   0.0115  -0.0048
 170 O   :3d0   -0.0068  -0.0114   0.0243  -0.0049   0.0063  -0.0066   0.0083
 171 O   :3d2+  -0.0017  -0.0037   0.0140   0.0030   0.0045  -0.0074   0.0048
 172 H   :1s     0.3098  -0.0010   0.0885   0.0080  -0.0087  -0.0108  -0.0080
 173 H   :1s     0.1099   0.0417   0.0917   0.5203   0.1266   0.4357   0.6118
 174 H   :1s     0.0012  -0.0100   0.0015  -0.3848   1.1298   3.0507   6.7786
 177 H   :2py    0.0497   0.0069   0.0270   0.1146  -0.0085   0.0372   0.0127
 178 H   :2pz   -0.0259  -0.0080  -0.0295  -0.0428  -0.0452   0.0115   0.0110
 179 H   :1s    -0.3454  -0.0924   0.0047  -0.0064  -0.0161  -0.0022   0.0045
 180 H   :1s    -0.1248  -0.0598  -0.0338   0.5144   0.6554   0.4642  -0.2862
 181 H   :1s    -0.0160   0.0118   0.0029   1.8746   3.9504   1.5780  -4.8765
 184 H   :2py   -0.0543  -0.0182  -0.0081   0.0978   0.0567   0.0204   0.0160
 185 H   :2pz   -0.0236  -0.0085  -0.0092   0.0333   0.0045   0.0942   0.0042
 186 H   :1s    -0.0000   0.0731  -0.0000  -0.0089   0.0000   0.0147   0.0000
 187 H   :1s    -0.0000   0.0578  -0.0000   0.9943  -0.0000  -0.4195  -0.0000
 188 H   :1s    -0.0000  -0.0124  -0.0000   2.1402  -0.0000  -5.7776   0.0000
 191 H   :2py    0.0214   0.0000  -0.0073   0.0000  -0.0426   0.0000   0.0602
 192 H   :2pz   -0.0000   0.0207   0.0000   0.1860  -0.0000   0.0227  -0.0000
 193 H   :1s     0.3454  -0.0924  -0.0047  -0.0064   0.0161  -0.0022  -0.0045
 194 H   :1s     0.1248  -0.0598   0.0338   0.5144  -0.6554   0.4642   0.2862
 195 H   :1s     0.0160   0.0118  -0.0029   1.8746  -3.9504   1.5780   4.8765
 198 H   :2py   -0.0543   0.0182  -0.0081  -0.0978   0.0567  -0.0204   0.0160
 199 H   :2pz    0.0236  -0.0085   0.0092   0.0333  -0.0045   0.0942  -0.0042
 200 H   :1s    -0.3098  -0.0010  -0.0885   0.0080   0.0087  -0.0108   0.0080
 201 H   :1s    -0.1099   0.0417  -0.0917   0.5203  -0.1266   0.4357  -0.6118
 202 H   :1s    -0.0012  -0.0100  -0.0015  -0.3848  -1.1298   3.0507  -6.7787
 205 H   :2py    0.0497  -0.0069   0.0270  -0.1146  -0.0085  -0.0372   0.0127
 206 H   :2pz    0.0259  -0.0080   0.0295  -0.0428   0.0452   0.0115  -0.0110

    Orbital        32       33       34       35       36       37
   1 C   :1s     0.0057  -0.0245  -0.0000   0.0161  -0.0000   0.0084
   2 C   :1s     0.0067  -0.0530  -0.0000   0.0245  -0.0000   0.0657
   3 C   :1s    -0.8738   2.7579  -0.0000   0.5199   0.0000   0.0693
   5 C   :1s   -25.3699  24.6459   0.0010  -6.9159  -0.0001   5.5343
   6 C   :2py   -0.0000  -0.0000   0.0025   0.0000  -0.0461  -0.0000
   7 C   :2pz   -0.0089  -0.0350   0.0000  -0.0395  -0.0000  -0.0042
   8 C   :2py   -0.0000   0.0000   1.0892   0.0001   0.5636   0.0000
   9 C   :2pz   -0.3888  -0.5742   0.0000  -0.0962  -0.0000   0.4391
  12 C   :2py   -0.0001   0.0001 -36.9035  -0.0043   0.0867  -0.0001
  13 C   :2pz    4.8046 -11.4766   0.0006  -5.3008   0.0000  -5.5167
  15 C   :3d0   -0.0045   0.0142  -0.0000   0.0032   0.0000   0.0029
  17 C   :3d1-  -0.0000   0.0000  -1.1444  -0.0001  -0.7580  -0.0000
  18 C   :3d0    0.3427  -0.7450  -0.0001   1.1686   0.0000   0.0890
  19 C   :3d2+   0.2725  -0.5995  -0.0001   0.8841   0.0000   0.1744
  20 C   :1s    -0.0068   0.0075   0.0157  -0.0055   0.0104   0.0129
  21 C   :1s    -0.0530   0.0085   0.0243  -0.0141   0.0052   0.0126
  22 C   :1s     0.5691  -0.2043   0.3547   1.7080   0.2525  -0.0244
  24 C   :1s    26.2197 -15.2714 -29.8670  -5.6400 -16.0601 -25.6073
  25 C   :2py    0.0124   0.0465   0.0516   0.0301   0.0193   0.0135
  26 C   :2pz   -0.0045  -0.0205  -0.0117  -0.0181   0.0315  -0.0284
  27 C   :2py   -0.5010  -0.2078   1.1839   0.0858   1.1083   0.4811
  28 C   :2pz    0.4814  -2.1490   0.5890  -0.2159   0.5722   0.1434
  31 C   :2py    6.7126  -3.3774 -10.2247   3.3729  -3.8931  -0.2944
  32 C   :2pz   -5.5052   1.6856 -16.8310   6.4771   4.1918  10.0548
  35 C   :3d2+   0.0015  -0.0111  -0.0057  -0.0114  -0.0027  -0.0041
  36 C   :3d1-   0.4462  -0.4762   0.2936   0.3015  -0.3744   0.0065
  37 C   :3d0    0.0869   0.1327  -0.6435   0.7034  -0.4996  -0.1008
  38 C   :3d2+  -0.0096   0.1627  -0.0499   0.4224  -0.1089   0.1243
  39 C   :1s     0.0068   0.0123   0.0076   0.0045  -0.0126   0.0032
  40 C   :1s     0.0506   0.0386  -0.0219   0.0155   0.0056   0.0454
  41 C   :1s    -0.4586  -1.1122   0.0333  -0.6877   0.6548  -0.2570
  43 C   :1s   -30.5948   0.2876 -11.4718   6.4526  20.0753  12.7546
  44 C   :2py   -0.0257   0.0368   0.0564   0.0571  -0.0129  -0.0427
  45 C   :2pz   -0.0189   0.0203   0.0180   0.0248  -0.0377  -0.0203
  46 C   :2py    0.5821  -0.1362  -0.6139   0.2934  -0.7554  -0.2175
  47 C   :2pz    0.6295  -1.1968   1.2953  -1.1582   0.4112   0.7451
  50 C   :2py   -8.8926  -2.8033   3.0744  -4.2026   3.8907  -4.6367
  51 C   :2pz   -6.1586  -0.1434  -6.1961   3.5659   4.9062  10.0439
  54 C   :3d2+   0.0015  -0.0091   0.0005  -0.0106  -0.0016   0.0040
  55 C   :3d1-   0.4704  -0.1189   0.2714   0.0317  -0.5075   0.0501
  56 C   :3d0   -0.2417  -0.4378   0.0891  -0.3560   0.2140  -0.3940
  57 C   :3d2+  -0.0210  -0.1668   0.2333  -0.1898  -0.0574  -0.2583
  59 C   :1s    -0.0750  -0.0138  -0.0000   0.0033  -0.0000   0.0818
  60 C   :1s     0.8773  -0.6732   0.0001  -0.7781  -0.0000  -0.0569
  62 C   :1s    28.7263   6.0616  -0.0011   8.6948  -0.0002  19.2661
  63 C   :2py    0.0000   0.0000   0.0057   0.0000  -0.0241  -0.0000
  64 C   :2pz    0.0163   0.0487  -0.0000   0.0667   0.0000  -0.1110
  65 C   :2py    0.0000  -0.0000  -1.7417  -0.0002   0.1664   0.0000
  66 C   :2pz   -0.5902  -0.3616   0.0001  -0.7458  -0.0000  -0.3056
  69 C   :2py    0.0000  -0.0000   3.4126   0.0003   5.2165   0.0001
  70 C   :2pz   11.3195   1.3217   0.0003  -2.7340  -0.0001   2.9970
  72 C   :3d0    0.0018   0.0104  -0.0000   0.0096   0.0000   0.0004
  74 C   :3d1-  -0.0000  -0.0000  -0.2706  -0.0000  -0.5592  -0.0000
  75 C   :3d0   -0.4781   0.0362  -0.0000   0.1538   0.0000  -0.5129
  76 C   :3d2+  -0.3461  -0.0453  -0.0000   0.0241   0.0000  -0.5809
  77 C   :1s     0.0068   0.0123  -0.0076   0.0045   0.0126   0.0032
  78 C   :1s     0.0506   0.0386   0.0218   0.0155  -0.0056   0.0454
  79 C   :1s    -0.4586  -1.1122  -0.0332  -0.6877  -0.6548  -0.2571
  81 C   :1s   -30.5948   0.2877  11.4703   6.4559 -20.0760  12.7537
  82 C   :2py    0.0257  -0.0368   0.0564  -0.0571  -0.0129   0.0427
  83 C   :2pz   -0.0189   0.0203  -0.0181   0.0248   0.0377  -0.0203
  84 C   :2py   -0.5821   0.1362  -0.6139  -0.2935  -0.7554   0.2174
  85 C   :2pz    0.6295  -1.1968  -1.2951  -1.1584  -0.4113   0.7451
  88 C   :2py    8.8926   2.8032   3.0734   4.2031   3.8907   4.6369
  89 C   :2pz   -6.1586  -0.1434   6.1952   3.5674  -4.9066  10.0437
  92 C   :3d2+   0.0015  -0.0091  -0.0005  -0.0106   0.0016   0.0040
  93 C   :3d1-  -0.4704   0.1189   0.2714  -0.0316  -0.5075  -0.0501
  94 C   :3d0   -0.2417  -0.4378  -0.0890  -0.3560  -0.2140  -0.3940
  95 C   :3d2+  -0.0210  -0.1668  -0.2333  -0.1899   0.0574  -0.2583
  96 C   :1s    -0.0068   0.0075  -0.0157  -0.0055  -0.0104   0.0129
  97 C   :1s    -0.0530   0.0085  -0.0243  -0.0141  -0.0052   0.0126
  98 C   :1s     0.5691  -0.2043  -0.3551   1.7079  -0.2524  -0.0244
 100 C   :1s    26.2198 -15.2717  29.8682  -5.6336  16.0612 -25.6064
 101 C   :2py   -0.0124  -0.0465   0.0516  -0.0301   0.0193  -0.0135
 102 C   :2pz   -0.0045  -0.0204   0.0117  -0.0181  -0.0315  -0.0284
 103 C   :2py    0.5010   0.2078   1.1839  -0.0856   1.1083  -0.4811
 104 C   :2pz    0.4814  -2.1490  -0.5889  -0.2159  -0.5722   0.1434
 107 C   :2py   -6.7126   3.3774 -10.2239  -3.3751  -3.8932   0.2942
 108 C   :2pz   -5.5052   1.6856  16.8294   6.4811  -4.1922  10.0546
 111 C   :3d2+   0.0015  -0.0111   0.0057  -0.0114   0.0027  -0.0041
 112 C   :3d1-  -0.4462   0.4762   0.2937  -0.3014  -0.3744  -0.0065
 113 C   :3d0    0.0869   0.1327   0.6433   0.7035   0.4996  -0.1008
 114 C   :3d2+  -0.0096   0.1627   0.0498   0.4224   0.1089   0.1243
 115 N   :1s    -0.0002  -0.0008   0.0000  -0.0120  -0.0000  -0.0004
 116 N   :1s     0.0021   0.0485   0.0000  -0.0098   0.0000  -0.0319
 117 N   :1s    -0.1408   0.3631  -0.0000   0.3451   0.0000  -0.1691
 119 N   :1s     1.5349   5.7005  -0.0007   5.4264   0.0001  -2.8336
 120 N   :2py    0.0000   0.0000   0.0097   0.0000   0.0215   0.0000
 121 N   :2pz    0.0246  -0.0375   0.0000  -0.0062  -0.0000   0.0212
 122 N   :2py   -0.0000  -0.0000   0.4533   0.0000   0.4104   0.0000
 123 N   :2pz   -0.0687  -0.1473  -0.0001   0.7656   0.0000   0.0649
 126 N   :2py    0.0000  -0.0000   4.9368   0.0006   0.0292   0.0000
 127 N   :2pz   -1.2059   2.5450  -0.0004   3.4117   0.0001  -0.1641
 131 N   :3d1-  -0.0000   0.0000  -0.0875  -0.0000   0.0455   0.0000
 132 N   :3d0    0.0253  -0.0267   0.0000  -0.1283  -0.0000  -0.0859
 133 N   :3d2+   0.0072  -0.0151   0.0000  -0.2346  -0.0000  -0.0579
 135 O   :1s    -0.0415   0.0151  -0.0057  -0.0377   0.0060   0.0084
 136 O   :1s    -0.0045   0.0129   0.0653  -0.3684   0.1413  -0.0561
 138 O   :1s     0.2627  -1.3543   2.0592  -3.1566   0.6513   0.7079
 139 O   :2py    0.0015   0.0021  -0.0003  -0.0062  -0.0148   0.0015
 140 O   :2pz   -0.0108   0.0241   0.0068  -0.0330   0.0064   0.0147
 141 O   :2py    0.0198   0.0203   0.0788  -0.2848   0.0970  -0.0002
 142 O   :2pz   -0.0121   0.0358  -0.0620   0.1647  -0.0392   0.0149
 145 O   :2py    0.1137  -0.6737   0.0819  -0.8557   0.3781   0.4541
 146 O   :2pz   -0.0583  -0.1768  -0.2477  -0.0889  -0.2393   0.1003
 150 O   :3d1-  -0.0085  -0.0006  -0.0217   0.0528  -0.0208   0.0062
 151 O   :3d0   -0.0017  -0.0022  -0.0001   0.0060  -0.0058  -0.0137
 152 O   :3d2+  -0.0056  -0.0106  -0.0052   0.0623  -0.0222  -0.0102
 154 O   :1s    -0.0415   0.0151   0.0058  -0.0377  -0.0060   0.0084
 155 O   :1s    -0.0045   0.0129  -0.0652  -0.3684  -0.1413  -0.0561
 157 O   :1s     0.2627  -1.3543  -2.0584  -3.1571  -0.6514   0.7078
 158 O   :2py   -0.0015  -0.0021  -0.0003   0.0062  -0.0148  -0.0015
 159 O   :2pz   -0.0108   0.0241  -0.0067  -0.0330  -0.0064   0.0147
 160 O   :2py   -0.0198  -0.0203   0.0788   0.2848   0.0970   0.0002
 161 O   :2pz   -0.0121   0.0358   0.0620   0.1647   0.0392   0.0149
 164 O   :2py   -0.1137   0.6737   0.0817   0.8557   0.3782  -0.4540
 165 O   :2pz   -0.0583  -0.1768   0.2477  -0.0888   0.2393   0.1004
 169 O   :3d1-   0.0085   0.0006  -0.0217  -0.0528  -0.0208  -0.0062
 170 O   :3d0   -0.0017  -0.0022   0.0001   0.0060   0.0058  -0.0137
 171 O   :3d2+  -0.0056  -0.0106   0.0052   0.0623   0.0222  -0.0102
 172 H   :1s    -0.0136   0.0434  -0.0185   0.0473  -0.0062  -0.0279
 173 H   :1s    -0.4578   0.9892   1.8541   1.4051   0.0864   1.2410
 174 H   :1s     6.0416   0.5693  -3.9908  -1.3943  -4.0518  -3.9852
 175 H   :2py   -0.0042  -0.0022  -0.0016  -0.0107   0.0014  -0.0025
 177 H   :2py   -0.1293   0.2358   0.4388   0.1501   0.0913   0.2620
 178 H   :2pz    0.1577  -0.2184   0.0081  -0.3208   0.0307  -0.1844
 179 H   :1s     0.0077   0.0153  -0.0422   0.0400   0.0177   0.0064
 180 H   :1s     0.5710  -0.4990   0.5628  -0.8092  -0.2466  -0.5166
 181 H   :1s    -9.0987  -3.4355  -2.8299   0.5161   5.2420   1.2271
 184 H   :2py    0.2208  -0.0047   0.1321  -0.0947   0.0059   0.0894
 185 H   :2pz    0.1186  -0.0849   0.1126  -0.1098  -0.2572  -0.2797
 186 H   :1s    -0.0124   0.0183  -0.0000   0.0332  -0.0000   0.0612
 187 H   :1s    -0.1108  -0.3613   0.0001  -1.2196  -0.0000   0.3572
 188 H   :1s     9.2656   2.7309   0.0001  -1.1859  -0.0001   6.7286
 191 H   :2py   -0.0000   0.0000   0.0341   0.0000  -0.3977  -0.0000
 192 H   :2pz   -0.1513  -0.0508   0.0000  -0.2035  -0.0000   0.0307
 193 H   :1s     0.0077   0.0153   0.0422   0.0400  -0.0177   0.0064
 194 H   :1s     0.5710  -0.4990  -0.5626  -0.8094   0.2466  -0.5166
 195 H   :1s    -9.0987  -3.4355   2.8298   0.5170  -5.2421   1.2269
 198 H   :2py   -0.2208   0.0047   0.1321   0.0948   0.0059  -0.0894
 199 H   :2pz    0.1186  -0.0849  -0.1126  -0.1098   0.2572  -0.2797
 200 H   :1s    -0.0136   0.0434   0.0185   0.0473   0.0062  -0.0279
 201 H   :1s    -0.4578   0.9892  -1.8544   1.4047  -0.0864   1.2410
 202 H   :1s     6.0416   0.5693   3.9912  -1.3935   4.0520  -3.9851
 203 H   :2py    0.0042   0.0022  -0.0016   0.0107   0.0014   0.0025
 205 H   :2py    0.1293  -0.2358   0.4389  -0.1500   0.0914  -0.2620
 206 H   :2pz    0.1577  -0.2184  -0.0080  -0.3208  -0.0307  -0.1844

 Molecular orbitals for symmetry species 2  (A" )
 ------------------------------------------------

    Orbital         1        2        3        4        5        6        7
   1 C   :2px    0.1699   0.3518   0.0000  -0.5158  -0.0000   0.2773  -0.0000
   2 C   :2px   -0.0268  -0.0165  -0.0000  -0.0333  -0.0000   0.0632  -0.0000
   4 C   :2px   -0.0311  -0.0187  -0.0000  -0.0308  -0.0000   0.2971   0.0000
   5 C   :3d2-   0.0000  -0.0000   0.0047  -0.0000   0.0326   0.0000   0.0407
   6 C   :3d1+   0.0138  -0.0142  -0.0000   0.0048   0.0000   0.0340   0.0000
   7 C   :3d2-  -0.0000   0.0000   0.0426   0.0000   0.0126   0.0000   0.0333
   8 C   :3d1+  -0.0809  -0.0202   0.0000   0.0355   0.0000   0.0181   0.0000
   9 C   :2px    0.0631   0.3171  -0.0280  -0.1954  -0.4160  -0.2465  -0.3687
  10 C   :2px   -0.0440  -0.0386   0.0323   0.0164  -0.0085  -0.0555  -0.1088
  12 C   :2px    0.0182   0.0169   0.0050  -0.0130  -0.0206  -0.3120  -1.0109
  13 C   :3d2-   0.0061   0.0152   0.0002  -0.0199  -0.0026   0.0113  -0.0015
  14 C   :3d1+   0.0024  -0.0077   0.0005  -0.0215   0.0194   0.0126  -0.0218
  15 C   :3d2-  -0.0279  -0.0095   0.0124   0.0146  -0.0002   0.0138   0.0128
  16 C   :3d1+   0.0236   0.0039   0.0004  -0.0081   0.0103   0.0157  -0.0136
  17 C   :2px    0.0224   0.3131  -0.0194   0.2604  -0.4198  -0.0916   0.3472
  18 C   :2px    0.0226  -0.0182  -0.0082  -0.0051  -0.0092  -0.0138   0.0928
  20 C   :2px   -0.0136  -0.0042  -0.0037   0.0180  -0.0287  -0.1181   1.1098
  21 C   :3d2-   0.0006   0.0134  -0.0001   0.0185  -0.0020   0.0147  -0.0007
  22 C   :3d1+   0.0031   0.0084  -0.0015  -0.0173  -0.0191  -0.0229  -0.0218
  24 C   :3d1+   0.0068   0.0028  -0.0039  -0.0018   0.0007  -0.0107  -0.0163
  25 C   :2px    0.0117   0.3080  -0.0000   0.4656   0.0000   0.3261   0.0000
  26 C   :2px   -0.0133  -0.0313   0.0000   0.0149   0.0000   0.0758  -0.0000
  28 C   :2px    0.0131   0.0090  -0.0000   0.0228   0.0000   0.4187  -0.0000
  29 C   :3d2-  -0.0000  -0.0000   0.0013  -0.0000   0.0317   0.0000  -0.0376
  30 C   :3d1+   0.0015   0.0157  -0.0000   0.0134   0.0000  -0.0060   0.0000
  31 C   :3d2-   0.0000   0.0000  -0.0015  -0.0000  -0.0004   0.0000  -0.0244
  32 C   :3d1+  -0.0106  -0.0024  -0.0000   0.0093   0.0000  -0.0078  -0.0000
  33 C   :2px    0.0224   0.3131   0.0194   0.2604   0.4198  -0.0916  -0.3472
  34 C   :2px    0.0226  -0.0182   0.0082  -0.0051   0.0092  -0.0138  -0.0928
  36 C   :2px   -0.0136  -0.0042   0.0037   0.0180   0.0287  -0.1181  -1.1098
  37 C   :3d2-  -0.0006  -0.0134  -0.0001  -0.0185  -0.0020  -0.0147  -0.0007
  38 C   :3d1+   0.0031   0.0084   0.0015  -0.0173   0.0191  -0.0229   0.0218
  40 C   :3d1+   0.0068   0.0028   0.0039  -0.0018  -0.0007  -0.0107   0.0163
  41 C   :2px    0.0631   0.3171   0.0280  -0.1954   0.4160  -0.2465   0.3687
  42 C   :2px   -0.0440  -0.0386  -0.0323   0.0164   0.0085  -0.0555   0.1088
  44 C   :2px    0.0182   0.0169  -0.0050  -0.0130   0.0206  -0.3120   1.0109
  45 C   :3d2-  -0.0061  -0.0152   0.0002   0.0199  -0.0026  -0.0113  -0.0015
  46 C   :3d1+   0.0024  -0.0077  -0.0005  -0.0215  -0.0194   0.0126   0.0218
  47 C   :3d2-   0.0279   0.0095   0.0124  -0.0146  -0.0002  -0.0138   0.0128
  48 C   :3d1+   0.0236   0.0039  -0.0004  -0.0081  -0.0103   0.0157   0.0136
  49 N   :2px    0.6226  -0.0900  -0.0000   0.0116  -0.0000   0.4768   0.0000
  50 N   :2px   -0.0392   0.0157   0.0000  -0.0187  -0.0000   0.1051   0.0000
  52 N   :2px    0.0466  -0.0076  -0.0000   0.0153  -0.0000   0.3019  -0.0000
  53 N   :3d2-  -0.0000   0.0000   0.0568   0.0000  -0.0031   0.0000  -0.0007
  54 N   :3d1+   0.0165  -0.0135  -0.0000   0.0199   0.0000  -0.0250  -0.0000
  55 N   :3d2-   0.0000  -0.0000  -0.0037  -0.0000  -0.0028  -0.0000   0.0134
  56 N   :3d1+  -0.0494  -0.0122   0.0000   0.0235   0.0000  -0.0222  -0.0000
  57 O   :2px    0.4068  -0.1269  -0.6434   0.1530   0.0505  -0.3376   0.0496
  58 O   :2px    0.0035  -0.0042  -0.0526   0.0103   0.0032  -0.0639   0.0136
  60 O   :2px   -0.0020  -0.0017  -0.0639   0.0112   0.0069  -0.2383   0.0589
  61 O   :3d2-   0.0177  -0.0043  -0.0117   0.0034   0.0010   0.0051   0.0012
  62 O   :3d1+  -0.0101   0.0015   0.0072  -0.0007  -0.0003  -0.0038   0.0008
  63 O   :3d2-   0.0247  -0.0037  -0.0247   0.0030   0.0010  -0.0033   0.0042
  64 O   :3d1+  -0.0105   0.0048   0.0182  -0.0047  -0.0004   0.0041  -0.0004
  65 O   :2px    0.4068  -0.1269   0.6434   0.1530  -0.0505  -0.3376  -0.0496
  66 O   :2px    0.0035  -0.0042   0.0526   0.0103  -0.0032  -0.0639  -0.0136
  68 O   :2px   -0.0020  -0.0017   0.0639   0.0112  -0.0069  -0.2383  -0.0589
  69 O   :3d2-  -0.0177   0.0043  -0.0117  -0.0034   0.0010  -0.0051   0.0012
  70 O   :3d1+  -0.0101   0.0015  -0.0072  -0.0007   0.0003  -0.0038  -0.0008
  71 O   :3d2-  -0.0247   0.0037  -0.0247  -0.0030   0.0010   0.0033   0.0042
  72 O   :3d1+  -0.0105   0.0048  -0.0182  -0.0047   0.0004   0.0041   0.0004
  73 H   :2px    0.0011   0.0071  -0.0013  -0.0044  -0.0103  -0.0091  -0.0139
  74 H   :2px   -0.0163  -0.0086   0.0011   0.0085  -0.0035  -0.0057  -0.0023
  75 H   :2px    0.0004   0.0075  -0.0006   0.0065  -0.0107  -0.0034   0.0151
  77 H   :2px    0.0002   0.0072  -0.0000   0.0116   0.0000   0.0114  -0.0000
  78 H   :2px   -0.0056  -0.0020   0.0000   0.0073   0.0000   0.0143   0.0000
  79 H   :2px    0.0004   0.0075   0.0006   0.0065   0.0107  -0.0034  -0.0151
  81 H   :2px    0.0011   0.0071   0.0013  -0.0044   0.0103  -0.0091   0.0139
  82 H   :2px   -0.0163  -0.0086  -0.0011   0.0085   0.0035  -0.0057   0.0023

    Orbital         8        9       10       11       12       13       14
   1 C   :2px   -0.0373  -0.2483  -0.0000  -0.0573  -0.0992   0.0000  -0.3523
   2 C   :2px   -0.0126  -0.1426   0.0000   0.0421  -0.1830   0.0000   0.0379
   4 C   :2px   -1.2383  -1.9737  -0.0000   1.3223  11.4978   0.0000  -1.4948
   5 C   :3d2-   0.0000  -0.0000   0.0067   0.0000  -0.0000  -0.0154  -0.0000
   6 C   :3d1+   0.0035   0.0164   0.0000   0.0081  -0.0016  -0.0000   0.0062
   7 C   :3d2-  -0.0000   0.0000  -0.1085  -0.0000   0.0000  -0.1355  -0.0000
   8 C   :3d1+  -0.0912   0.0697  -0.0000  -0.1357   0.0904  -0.0000  -0.1324
   9 C   :2px   -0.0717   0.0311   0.0499  -0.1156   0.0021   0.2475   0.1292
  10 C   :2px   -0.1262   0.0669   0.0047  -0.1286   0.0572   0.0129  -0.0981
  12 C   :2px    0.8509   0.4267  -0.6062   0.5438  -8.1605  -2.8182   2.7865
  13 C   :3d2-  -0.0027  -0.0181   0.0073   0.0005   0.0039   0.0018  -0.0122
  14 C   :3d1+   0.0010  -0.0187  -0.0063   0.0061  -0.0080   0.0058  -0.0119
  15 C   :3d2-  -0.0706   0.0357  -0.0273  -0.1259   0.1001   0.0343  -0.1690
  16 C   :3d1+   0.0645  -0.0168  -0.0457   0.0104  -0.0899   0.0341   0.0166
  17 C   :2px   -0.0993   0.1815   0.1501  -0.0101   0.1044  -0.2300   0.1407
  18 C   :2px   -0.0360   0.0347   0.0729   0.0647  -0.0751  -0.0236   0.1525
  20 C   :2px    0.0107   1.5595  -0.8971  -0.3875   5.4252   2.6564  -4.9970
  21 C   :3d2-  -0.0047  -0.0174   0.0076   0.0067  -0.0010  -0.0012  -0.0073
  22 C   :3d1+  -0.0034   0.0115   0.0011   0.0010   0.0055   0.0060   0.0105
  23 C   :3d2-   0.0149  -0.0366  -0.0044   0.0701  -0.1808  -0.0333   0.0710
  24 C   :3d1+   0.0203  -0.0242   0.0300  -0.0476  -0.0386   0.0403   0.1324
  25 C   :2px   -0.0927  -0.2407  -0.0000   0.1746  -0.1895   0.0000  -0.2566
  26 C   :2px   -0.1517  -0.0521  -0.0000   0.0109   0.1333  -0.0000  -0.1445
  28 C   :2px    0.7134  -2.4359  -0.0000  -0.9100  -4.6938  -0.0000   5.9963
  29 C   :3d2-  -0.0000   0.0000  -0.0021  -0.0000   0.0000   0.0123   0.0000
  30 C   :3d1+  -0.0068   0.0113   0.0000   0.0072   0.0084  -0.0000   0.0036
  31 C   :3d2-   0.0000   0.0000  -0.0805   0.0000  -0.0000   0.0917   0.0000
  32 C   :3d1+  -0.0557   0.0485  -0.0000  -0.0317   0.1523  -0.0000  -0.1310
  33 C   :2px   -0.0993   0.1815  -0.1501  -0.0101   0.1044   0.2300   0.1407
  34 C   :2px   -0.0360   0.0347  -0.0729   0.0647  -0.0751   0.0236   0.1525
  36 C   :2px    0.0107   1.5595   0.8971  -0.3876   5.4252  -2.6564  -4.9970
  37 C   :3d2-   0.0047   0.0174   0.0076  -0.0067   0.0010  -0.0012   0.0073
  38 C   :3d1+  -0.0034   0.0115  -0.0011   0.0010   0.0055  -0.0060   0.0105
  39 C   :3d2-  -0.0149   0.0366  -0.0044  -0.0701   0.1808  -0.0333  -0.0710
  40 C   :3d1+   0.0203  -0.0242  -0.0300  -0.0476  -0.0386  -0.0403   0.1324
  41 C   :2px   -0.0717   0.0311  -0.0499  -0.1156   0.0021  -0.2475   0.1292
  42 C   :2px   -0.1262   0.0669  -0.0047  -0.1286   0.0572  -0.0129  -0.0981
  44 C   :2px    0.8509   0.4267   0.6062   0.5438  -8.1605   2.8182   2.7865
  45 C   :3d2-   0.0027   0.0181   0.0073  -0.0005  -0.0039   0.0018   0.0122
  46 C   :3d1+   0.0010  -0.0187   0.0063   0.0061  -0.0080  -0.0058  -0.0119
  47 C   :3d2-   0.0706  -0.0357  -0.0273   0.1259  -0.1001   0.0343   0.1690
  48 C   :3d1+   0.0645  -0.0168   0.0457   0.0104  -0.0899  -0.0341   0.0166
  49 N   :2px    0.0315   0.4905   0.0000   0.0371   0.0379  -0.0000   0.3056
  50 N   :2px    0.0260   0.1095   0.0000   0.0736   0.0447   0.0000   0.1514
  52 N   :2px    0.5179   1.0980   0.0000  -0.8850  -2.6464   0.0000   0.0944
  55 N   :3d2-   0.0000  -0.0000   0.0225   0.0000  -0.0000   0.0216   0.0000
  56 N   :3d1+  -0.0424   0.0154  -0.0000  -0.0583   0.0171  -0.0000  -0.0033
  57 O   :2px   -0.0543  -0.2194   0.0333  -0.1152  -0.0404   0.0330  -0.1586
  58 O   :2px   -0.0100  -0.0491   0.0237  -0.0384  -0.0211   0.0249  -0.0471
  60 O   :2px   -0.1002  -0.4236  -0.0073   0.2466   0.4390   0.0948  -0.1696
  63 O   :3d2-   0.0046  -0.0035   0.0041   0.0107   0.0057   0.0054   0.0021
  65 O   :2px   -0.0543  -0.2194  -0.0333  -0.1152  -0.0404  -0.0330  -0.1586
  66 O   :2px   -0.0100  -0.0491  -0.0237  -0.0384  -0.0211  -0.0249  -0.0471
  68 O   :2px   -0.1002  -0.4236   0.0073   0.2466   0.4390  -0.0948  -0.1696
  71 O   :3d2-  -0.0046   0.0035   0.0041  -0.0107  -0.0057   0.0054  -0.0021
  73 H   :2px    0.0031   0.0036  -0.0079   0.0036  -0.0119  -0.0036   0.0046
  74 H   :2px   -0.0799   0.0149   0.0450  -0.1389   0.2142   0.1860  -0.0774
  76 H   :2px   -0.0106  -0.0322   0.0756   0.0191  -0.1637  -0.1685   0.2160
  77 H   :2px    0.0063  -0.0150  -0.0000  -0.0053  -0.0085  -0.0000   0.0041
  78 H   :2px   -0.0488   0.0521  -0.0000   0.0665   0.0552  -0.0000  -0.2923
  80 H   :2px   -0.0106  -0.0322  -0.0756   0.0191  -0.1637   0.1685   0.2160
  81 H   :2px    0.0031   0.0036   0.0079   0.0036  -0.0119   0.0036   0.0046
  82 H   :2px   -0.0799   0.0149  -0.0450  -0.1389   0.2142  -0.1860  -0.0774

    Orbital        15
   2 C   :2px   -0.2060
   4 C   :2px    4.4825
   6 C   :3d1+  -0.0194
   8 C   :3d1+   0.5606
  10 C   :2px    0.2818
  12 C   :2px   -1.3004
  15 C   :3d2-   0.2950
  16 C   :3d1+  -0.1052
  17 C   :2px   -0.0654
  18 C   :2px   -0.1712
  20 C   :2px    0.1053
  21 C   :3d2-   0.0108
  23 C   :3d2-  -0.1476
  24 C   :3d1+  -0.0623
  25 C   :2px    0.0436
  26 C   :2px    0.2907
  28 C   :2px   -0.2084
  32 C   :3d1+   0.1143
  33 C   :2px   -0.0654
  34 C   :2px   -0.1712
  36 C   :2px    0.1053
  37 C   :3d2-  -0.0108
  39 C   :3d2-   0.1476
  40 C   :3d1+  -0.0623
  42 C   :2px    0.2818
  44 C   :2px   -1.3004
  47 C   :3d2-  -0.2950
  48 C   :3d1+  -0.1052
  49 N   :2px    0.0123
  50 N   :2px    0.0440
  52 N   :2px   -3.4542
  56 N   :3d1+   0.2334
  57 O   :2px    0.1900
  58 O   :2px    0.0609
  60 O   :2px    0.2545
  63 O   :3d2-  -0.0460
  65 O   :2px    0.1900
  66 O   :2px    0.0609
  68 O   :2px    0.2545
  71 O   :3d2-   0.0460
  74 H   :2px    0.0990
  76 H   :2px   -0.2092
  78 H   :2px   -0.0606
  80 H   :2px   -0.2092
  82 H   :2px    0.0990

  Total CPU  time used in SIRIUS :  2 minutes 38 seconds
  Total wall time used in SIRIUS :  2 minutes 38 seconds

 
     Date and time (Linux)  : Wed Aug 28 16:47:43 2019
     Host name              : Lab2-333-NPs                            


                     .---------------------------------------.
                     | End of Wave Function Section (SIRIUS) |
                     `---------------------------------------'



                 .------------------------------------------------.
                 | Starting in Dynamic Property Section (RESPONS) |
                 `------------------------------------------------'


 ------------------------------------------------------------------------------
  RESPONSE  -  an MCSCF, MC-srDFT, DFT, and SOPPA response property program
 ------------------------------------------------------------------------------


 -------- OUTPUT FROM RESPONSE INPUT PROCESSING --------




 Linear Response calculation
 ---------------------------

 Print level                                    : IPRLR  =   2
 Maximum number of iterations                   : MAXITL =  60
 Threshold for relative convergence             : THCLR  = 1.000D-03
 Maximum iterations in optimal orbital algorithm: MAXITO =   5

  1 B-frequencies  5.700000D-02

    2 second order properties calculated with symmetry no.    1 and labels:

          YDIPLEN 
          ZDIPLEN 

    1 second order properties calculated with symmetry no.    2 and labels:

          XDIPLEN 
