

     ************************************************************************
     *************** Dalton - An Electronic Structure Program ***************
     ************************************************************************

    This is output from DALTON release Dalton2018.1 (2019)
         ( Web site: http://daltonprogram.org )

   ----------------------------------------------------------------------------

    NOTE:
     
    Dalton is an experimental code for the evaluation of molecular
    properties using (MC)SCF, DFT, CI, and CC wave functions.
    The authors accept no responsibility for the performance of
    the code or for the correctness of the results.
     
    The code (in whole or part) is provided under a licence and
    is not to be reproduced for further distribution without
    the written permission of the authors or their representatives.
     
    See the home page "http://daltonprogram.org" for further information.
     
    If results obtained with this code are published,
    the appropriate citations would be both of:
     
       K. Aidas, C. Angeli, K. L. Bak, V. Bakken, R. Bast,
       L. Boman, O. Christiansen, R. Cimiraglia, S. Coriani,
       P. Dahle, E. K. Dalskov, U. Ekstroem,
       T. Enevoldsen, J. J. Eriksen, P. Ettenhuber, B. Fernandez,
       L. Ferrighi, H. Fliegl, L. Frediani, K. Hald, A. Halkier,
       C. Haettig, H. Heiberg, T. Helgaker, A. C. Hennum,
       H. Hettema, E. Hjertenaes, S. Hoest, I.-M. Hoeyvik,
       M. F. Iozzi, B. Jansik, H. J. Aa. Jensen, D. Jonsson,
       P. Joergensen, J. Kauczor, S. Kirpekar,
       T. Kjaergaard, W. Klopper, S. Knecht, R. Kobayashi, H. Koch,
       J. Kongsted, A. Krapp, K. Kristensen, A. Ligabue,
       O. B. Lutnaes, J. I. Melo, K. V. Mikkelsen, R. H. Myhre,
       C. Neiss, C. B. Nielsen, P. Norman, J. Olsen,
       J. M. H. Olsen, A. Osted, M. J. Packer, F. Pawlowski,
       T. B. Pedersen, P. F. Provasi, S. Reine, Z. Rinkevicius,
       T. A. Ruden, K. Ruud, V. Rybkin, P. Salek, C. C. M. Samson,
       A. Sanchez de Meras, T. Saue, S. P. A. Sauer,
       B. Schimmelpfennig, K. Sneskov, A. H. Steindal,
       K. O. Sylvester-Hvid, P. R. Taylor, A. M. Teale,
       E. I. Tellgren, D. P. Tew, A. J. Thorvaldsen, L. Thoegersen,
       O. Vahtras, M. A. Watson, D. J. D. Wilson, M. Ziolkowski
       and H. Agren,
       "The Dalton quantum chemistry program system",
       WIREs Comput. Mol. Sci. 2014, 4:269–284 (doi: 10.1002/wcms.1172)
     
    and
     
       Dalton, a molecular electronic structure program,
       Release Dalton2018.1 (2019), see http://daltonprogram.org
   ----------------------------------------------------------------------------

    Authors in alphabetical order (major contribution(s) in parenthesis):

  Kestutis Aidas,           Vilnius University,           Lithuania   (QM/MM)
  Celestino Angeli,         University of Ferrara,        Italy       (NEVPT2)
  Keld L. Bak,              UNI-C,                        Denmark     (AOSOPPA, non-adiabatic coupling, magnetic properties)
  Vebjoern Bakken,          University of Oslo,           Norway      (DALTON; geometry optimizer, symmetry detection)
  Radovan Bast,             UiT The Arctic U. of Norway,  Norway      (DALTON installation and execution frameworks)
  Pablo Baudin,             University of Valencia,       Spain       (Cholesky excitation energies)
  Linus Boman,              NTNU,                         Norway      (Cholesky decomposition and subsystems)
  Ove Christiansen,         Aarhus University,            Denmark     (CC module)
  Renzo Cimiraglia,         University of Ferrara,        Italy       (NEVPT2)
  Sonia Coriani,            Technical Univ. of Denmark,   Denmark     (CC module, MCD in RESPONS)
  Janusz Cukras,            University of Trieste,        Italy       (MChD in RESPONS)
  Paal Dahle,               University of Oslo,           Norway      (Parallelization)
  Erik K. Dalskov,          UNI-C,                        Denmark     (SOPPA)
  Thomas Enevoldsen,        Univ. of Southern Denmark,    Denmark     (SOPPA)
  Janus J. Eriksen,         Aarhus University,            Denmark     (Polarizable embedding model, TDA)
  Rasmus Faber,             University of Copenhagen,     Denmark     (Vib.avg. NMR with SOPPA, parallel AO-SOPPA)
  Tobias Fahleson,          KTH Stockholm,                Sweden      (Damped cubic response)
  Berta Fernandez,          U. of Santiago de Compostela, Spain       (doublet spin, ESR in RESPONS)
  Lara Ferrighi,            Aarhus University,            Denmark     (PCM Cubic response)
  Heike Fliegl,             University of Oslo,           Norway      (CCSD(R12))
  Luca Frediani,            UiT The Arctic U. of Norway,  Norway      (PCM)
  Bin Gao,                  UiT The Arctic U. of Norway,  Norway      (Gen1Int library)
  Christof Haettig,         Ruhr-University Bochum,       Germany     (CC module)
  Kasper Hald,              Aarhus University,            Denmark     (CC module)
  Asger Halkier,            Aarhus University,            Denmark     (CC module)
  Frederik Beyer Hansen,    University of Copenhagen,     Denmark     (Parallel AO-SOPPA)
  Erik D. Hedegaard,        Univ. of Southern Denmark,    Denmark     (Polarizable embedding model, QM/MM)
  Hanne Heiberg,            University of Oslo,           Norway      (geometry analysis, selected one-electron integrals)
  Trygve Helgaker,          University of Oslo,           Norway      (DALTON; ABACUS, ERI, DFT modules, London, and much more)
  Alf Christian Hennum,     University of Oslo,           Norway      (Parity violation)
  Hinne Hettema,            University of Auckland,       New Zealand (quadratic response in RESPONS; SIRIUS supersymmetry)
  Eirik Hjertenaes,         NTNU,                         Norway      (Cholesky decomposition)
  Pi A. B. Haase,           University of Copenhagen,     Denmark     (Triplet AO-SOPPA)
  Maria Francesca Iozzi,    University of Oslo,           Norway      (RPA)
  Christoph Jacob           TU Braunschweig               Germany     (Frozen density embedding model)
  Brano Jansik              Technical Univ. of Ostrava    Czech Rep.  (DFT cubic response)
  Hans Joergen Aa. Jensen,  Univ. of Southern Denmark,    Denmark     (DALTON; SIRIUS, RESPONS, ABACUS modules, London, and much more)
  Dan Jonsson,              UiT The Arctic U. of Norway,  Norway      (cubic response in RESPONS module)
  Poul Joergensen,          Aarhus University,            Denmark     (RESPONS, ABACUS, and CC modules)
  Maciej Kaminski,          University of Warsaw,         Poland      (CPPh in RESPONS)
  Joanna Kauczor,           Linkoeping University,        Sweden      (Complex polarization propagator (CPP) module)
  Sheela Kirpekar,          Univ. of Southern Denmark,    Denmark     (Mass-velocity & Darwin integrals)
  Wim Klopper,              KIT Karlsruhe,                Germany     (R12 code in CC, SIRIUS, and ABACUS modules)
  Stefan Knecht,            ETH Zurich,                   Switzerland (Parallel CI and MCSCF)
  Rika Kobayashi,           Australian National Univ.,    Australia   (DIIS in CC, London in MCSCF)
  Henrik Koch,              NTNU,                         Norway      (CC module, Cholesky decomposition)
  Jacob Kongsted,           Univ. of Southern Denmark,    Denmark     (Polarizable embedding model, QM/MM)
  Andrea Ligabue,           University of Modena,         Italy       (CTOCD, AOSOPPA)
  Nanna H. List             Univ. of Southern Denmark,    Denmark     (Polarizable embedding model)
  Ola B. Lutnaes,           University of Oslo,           Norway      (DFT Hessian)
  Juan I. Melo,             University of Buenos Aires,   Argentina   (LRESC, Relativistic Effects on NMR Shieldings)
  Kurt V. Mikkelsen,        University of Copenhagen,     Denmark     (MC-SCRF and QM/MM)
  Rolf H. Myhre,            NTNU,                         Norway      (Subsystems and CC3)
  Christian Neiss,          Univ. Erlangen-Nuernberg,     Germany     (CCSD(R12))
  Christian B. Nielsen,     University of Copenhagen,     Denmark     (QM/MM)
  Patrick Norman,           KTH Stockholm,                Sweden      (Cubic response and complex frequency response in RESPONS)
  Jeppe Olsen,              Aarhus University,            Denmark     (SIRIUS CI/density modules)
  Jogvan Magnus H. Olsen,   Univ. of Southern Denmark,    Denmark     (Polarizable embedding model, QM/MM)
  Anders Osted,             Copenhagen University,        Denmark     (QM/MM)
  Martin J. Packer,         University of Sheffield,      UK          (SOPPA)
  Filip Pawlowski,          Kazimierz Wielki University,  Poland      (CC3)
  Morten N. Pedersen,       Univ. of Southern Denmark,    Denmark     (Polarizable embedding model)
  Thomas B. Pedersen,       University of Oslo,           Norway      (Cholesky decomposition)
  Patricio F. Provasi,      University of Northeastern,   Argentina   (Analysis of coupling constants in localized orbitals)
  Zilvinas Rinkevicius,     KTH Stockholm,                Sweden      (open-shell DFT, ESR)
  Elias Rudberg,            KTH Stockholm,                Sweden      (DFT grid and basis info)
  Torgeir A. Ruden,         University of Oslo,           Norway      (Numerical derivatives in ABACUS)
  Kenneth Ruud,             UiT The Arctic U. of Norway,  Norway      (DALTON; ABACUS magnetic properties and much more)
  Pawel Salek,              KTH Stockholm,                Sweden      (DALTON; DFT code)
  Claire C. M. Samson       University of Karlsruhe       Germany     (Boys localization, r12 integrals in ERI)
  Alfredo Sanchez de Meras, University of Valencia,       Spain       (CC module, Cholesky decomposition)
  Trond Saue,               Paul Sabatier University,     France      (direct Fock matrix construction)
  Stephan P. A. Sauer,      University of Copenhagen,     Denmark     (SOPPA(CCSD), SOPPA prop., AOSOPPA, vibrational g-factors)
  Andre S. P. Gomes,        CNRS/Universite de Lille,     France      (Frozen density embedding model)
  Bernd Schimmelpfennig,    Forschungszentrum Karlsruhe,  Germany     (AMFI module)
  Kristian Sneskov,         Aarhus University,            Denmark     (Polarizable embedding model, QM/MM)
  Arnfinn H. Steindal,      UiT The Arctic U. of Norway,  Norway      (parallel QM/MM, Polarizable embedding model)
  Casper Steinmann,         Univ. of Southern Denmark,    Denmark     (QFIT, Polarizable embedding model)
  K. O. Sylvester-Hvid,     University of Copenhagen,     Denmark     (MC-SCRF)
  Peter R. Taylor,          VLSCI/Univ. of Melbourne,     Australia   (Symmetry handling ABACUS, integral transformation)
  Andrew M. Teale,          University of Nottingham,     England     (DFT-AC, DFT-D)
  David P. Tew,             University of Bristol,        England     (CCSD(R12))
  Olav Vahtras,             KTH Stockholm,                Sweden      (triplet response, spin-orbit, ESR, TDDFT, open-shell DFT)
  Lucas Visscher,           Vrije Universiteit Amsterdam, Netherlands (Frozen density embedding model)
  David J. Wilson,          La Trobe University,          Australia   (DFT Hessian and DFT magnetizabilities)
  Hans Agren,               KTH Stockholm,                Sweden      (SIRIUS module, RESPONS, MC-SCRF solvation model)
 --------------------------------------------------------------------------------

     Date and time (Linux)  : Mon May 13 10:05:42 2019
     Host name              : Lab2-333-NPs                            

 * Work memory size             :    64000000 =  488.28 megabytes.

 * Directories for basis set searches:
   1) /home/lab333/dalton/build_2018_atlas
   2) /home/lab333/dalton/build_2018_atlas/basis


Compilation information
-----------------------

 Who compiled             | lab333
 Host                     | Lab2-333-NPs
 System                   | Linux-4.4.0-43-Microsoft
 CMake generator          | Unix Makefiles
 Processor                | x86_64
 64-bit integers          | OFF
 MPI                      | OFF
 Fortran compiler         | /usr/bin/gfortran
 Fortran compiler version | GNU Fortran (Ubuntu 7.3.0-27ubuntu1~18.04) 7.3.0
 C compiler               | /usr/bin/gcc
 C compiler version       | gcc (Ubuntu 7.3.0-27ubuntu1~18.04) 7.3.0
 C++ compiler             | /usr/bin/g++
 C++ compiler version     | g++ (Ubuntu 7.3.0-27ubuntu1~18.04) 7.3.0
 BLAS                     | /usr/lib/x86_64-linux-gnu/libf77blas.so;/usr/lib/x
                          | 86_64-linux-gnu/libcblas.so;/usr/lib/x86_64-linux-
                          | gnu/libatlas.so
 LAPACK                   | /usr/lib/x86_64-linux-gnu/libatlas.so;/usr/lib/x86
                          | _64-linux-gnu/atlas/liblapack.so
 Static linking           | OFF
 Last Git revision        | da625bf48c74028e805616daee31bc5d76b3a20d
 Git branch               | (HEAD detached at Dalton2018.1)
 Configuration time       | 2019-01-18 10:20:51.437510


   Content of the .dal input file
 ----------------------------------

**DALTON INPUT
.OPTIMIZE
**WAVE FUNCTIONS
.DFT
B3LYP
**END OF DALTON INPUT


   Content of the .mol file
 ----------------------------

BASIS
6-311++G**
 water
 Generated by the Dalton Input File Plugin for Avogadro
Atomtypes=2 Angstrom
Charge=8.0 Atoms=1
O         -0.47608        1.74838        0.00000
Charge=1.0 Atoms=2
H          0.49392        1.74838        0.00000
H         -0.79941        1.68842       -0.91256


       *******************************************************************
       *********** Output from DALTON general input processing ***********
       *******************************************************************

 --------------------------------------------------------------------------------
   Overall default print level:    0
   Print level for DALTON.STAT:    1

    "Old" integral transformation used (limited to max 255 basis functions)
 --------------------------------------------------------------------------------


 Chosen parameters for *OPTIMI :
 -------------------------------

 Default 1st order method will be used:   BFGS update.
 Optimization will be performed in redundant internal coordinates (by default).
 Model Hessian will be used as initial Hessian.
 The model Hessian parameters of Roland Lindh will be used.


 Trust region method will be used to control step (default).

 Convergence threshold for gradient set to :      1.00D-04
 Convergence threshold for energy set to   :      1.00D-06
 Convergence threshold for step set to     :      1.00D-04
 Number of convergence criteria set to     :   2


              >>>>>>>>>>>>>>>>>>>>>>>>>>>>>>>>>>>>>>>>>>>>>>>>>>>>>
              >>>>>>>>>> 1st Order Geometry Optimization >>>>>>>>>>
              >>>>>>>>>>>>>>>>>>>>>>>>>>>>>>>>>>>>>>>>>>>>>>>>>>>>>


 Reading .mol file to determine number of atoms for parallel runs.


                      SYMADD: Requested addition of symmetry
                      --------------------------------------

 Symmetry test threshold:  5.00E-06

@   The molecule is centered at center of mass and rotated
@   so principal axes of inertia are along coordinate axes.

 Symmetry class found: C(s)           

 The following symmetry elements were found:   X  Z     


   ****************************************************************************
   *************** Output of molecule and basis set information ***************
   ****************************************************************************


    The two title cards from your ".mol" input:
    ------------------------------------------------------------------------
 1:  water                                                                  
 2:  Generated by the Dalton Input File Plugin for Avogadro                 
    ------------------------------------------------------------------------

  Coordinates are entered in Angstrom and converted to atomic units.
          - Conversion factor : 1 bohr = 0.52917721 A

  Atomic type no.    1
  --------------------
  Nuclear charge:   8.00000
  Number of symmetry independent centers:    1
  Number of basis sets to read;    2
  Basis set file used for this atomic type with Z =   8 :
     "/home/lab333/dalton/build_2018_atlas/basis/6-311++G**"

  Info about the basis set file: your basis has no documentation.
  Basis set: 6-311++G**                                                                      

  Atomic type no.    2
  --------------------
  Nuclear charge:   1.00000
  Number of symmetry independent centers:    2
  Number of basis sets to read;    2
  Basis set file used for this atomic type with Z =   1 :
     "/home/lab333/dalton/build_2018_atlas/basis/6-311++G**"

  Info about the basis set file: your basis has no documentation.
  Basis set: 6-311++G**                                                                      


                      SYMADD: Requested addition of symmetry
                      --------------------------------------

 Symmetry test threshold:  5.00E-06

@   The molecule is centered at center of mass and rotated
@   so principal axes of inertia are along coordinate axes.

 Symmetry class found: C(s)           

 Symmetry Independent Centres             
 ----------------------------
       8 :      0.00000000    -0.11844028     0.00000000  Isotope  1
       1 :      0.00000000     0.93986887     1.49666222  Isotope  1

 The following symmetry elements were found:   X  Z     


                         SYMGRP: Point group information
                         -------------------------------

@    Full point group is: C(s)           
@    Represented as:      C2v

@  * The irrep name for each symmetry:    1: A1     2: B2     3: B1     4: A2 

   * The point group was generated by:

      Reflection in the yz-plane
      Reflection in the xy-plane

   * Group multiplication table

        |  E   C2y  Oxy  Oyz
   -----+--------------------
     E  |  E   C2y  Oxy  Oyz
    C2y | C2y   E   Oyz  Oxy
    Oxy | Oxy  Oyz   E   C2y
    Oyz | Oyz  Oxy  C2y   E 

   * Character table

        |  E   C2y  Oxy  Oyz
   -----+--------------------
    A1  |   1    1    1    1
    B2  |   1   -1    1   -1
    B1  |   1   -1   -1    1
    A2  |   1    1   -1   -1

   * Direct product table

        | A1   B2   B1   A2 
   -----+--------------------
    A1  | A1   B2   B1   A2 
    B2  | B2   A1   A2   B1 
    B1  | B1   A2   A1   B2 
    A2  | A2   B1   B2   A1 


                                 Isotopic Masses
                                 ---------------

                           O          15.994915
                           H   _1      1.007825
                           H   _2      1.007825

                       Total mass:    18.010565 amu
                       Natural abundance:  99.730 %

 Center-of-mass coordinates (a.u.):    0.000000    0.000000    0.000000


  Atoms and basis sets
  --------------------

  Number of atom types :    2
  Total number of atoms:    3

  Basis set used is "6-311++G**" from the basis set library.

  label    atoms   charge   prim   cont     basis
  ----------------------------------------------------------------------
  O           1    8.0000    35    22      [12s6p1d|5s4p1d]                                   
  H           2    1.0000     9     7      [6s1p|4s1p]                                        
  ----------------------------------------------------------------------
  total:      3   10.0000    53    36
  ----------------------------------------------------------------------
  Spherical harmonic basis used.

  Threshold for neglecting AO integrals:  1.00D-12


  Cartesian Coordinates (a.u.)
  ----------------------------

  Total number of coordinates:    9
  O       :     1  x   0.0000000000    2  y  -0.1184402842    3  z   0.0000000000
  H   / 1 :     4  x   0.0000000000    5  y   0.9398688679    6  z   1.4966622200
  H   / 2 :     7  x   0.0000000000    8  y   0.9398688679    9  z  -1.4966622200


  Symmetry Coordinates
  --------------------

  Number of coordinates in each symmetry:     3    2    3    1

  Symmetry  A1  ( 1)

    1   O     y    2
    2   H     y    [  5  +    8 ]/2
    3   H     z    [  6  -    9 ]/2

  Symmetry  B2  ( 2)

    4   O     x    1
    5   H     x    [  4  +    7 ]/2

  Symmetry  B1  ( 3)

    6   O     z    3
    7   H     y    [  5  -    8 ]/2
    8   H     z    [  6  +    9 ]/2

  Symmetry  A2  ( 4)

    9   H     x    [  4  -    7 ]/2


   Interatomic separations (in Angstrom):
   --------------------------------------

            O           H   _1      H   _2
            ------      ------      ------
 O     :    0.000000
 H   _1:    0.970000    0.000000
 H   _2:    0.970000    1.583999    0.000000


  Max    interatomic separation is    1.5840 Angstrom (    2.9933 Bohr)
  between atoms    3 and    2, "H   _2" and "H   _1".

  Min HX interatomic separation is    0.9700 Angstrom (    1.8330 Bohr)


  Bond distances (Angstrom):
  --------------------------

                  atom 1     atom 2       distance
                  ------     ------       --------
  bond distance:  H   _1     O            0.970000
  bond distance:  H   _2     O            0.970000


  Bond angles (degrees):
  ----------------------

                  atom 1     atom 2     atom 3         angle
                  ------     ------     ------         -----
  bond angle:     H   _1     O          H   _2       109.471




 Principal moments of inertia (u*A**2) and principal axes
 --------------------------------------------------------

   IA       0.561432          0.000000    0.000000    1.000000
   IB       1.264343          0.000000    1.000000    0.000000
   IC       1.825775          1.000000    0.000000    0.000000


 Rotational constants
 --------------------

@    The molecule is planar.

               A                   B                   C

         900160.8181         399716.6292         276802.4391 MHz
           30.026133           13.333112            9.233136 cm-1


@  Nuclear repulsion energy :    9.062771462432 Hartree


  Symmetry Orbitals
  -----------------

  Number of orbitals in each symmetry:          17    6   11    2


  Symmetry  A1 ( 1)

    1     O        1s         1
    2     O        1s         2
    3     O        1s         3
    4     O        1s         4
    5     O        1s         5
    6     O        2py        7
    7     O        2py       10
    8     O        2py       13
    9     O        2py       16
   10     O        3d0       20
   11     O        3d2+      22
   12     H        1s        23 +   24
   13     H        1s        25 +   26
   14     H        1s        27 +   28
   15     H        1s        29 +   30
   16     H        2py       33 +   34
   17     H        2pz       35 -   36


  Symmetry  B2 ( 2)

   18     O        2px        6
   19     O        2px        9
   20     O        2px       12
   21     O        2px       15
   22     O        3d2-      18
   23     H        2px       31 +   32


  Symmetry  B1 ( 3)

   24     O        2pz        8
   25     O        2pz       11
   26     O        2pz       14
   27     O        2pz       17
   28     O        3d1-      19
   29     H        1s        23 -   24
   30     H        1s        25 -   26
   31     H        1s        27 -   28
   32     H        1s        29 -   30
   33     H        2py       33 -   34
   34     H        2pz       35 +   36


  Symmetry  A2 ( 4)

   35     O        3d1+      21
   36     H        2px       31 -   32

  Symmetries of electric field:  B2 (2)  A1 (1)  B1 (3)

  Symmetries of magnetic field:  B1 (3)  A2 (4)  B2 (2)


                     .---------------------------------------.
                     | Starting in Integral Section (HERMIT) |
                     `---------------------------------------'



 ***************************************************************************************
 ****************** Output from **INTEGRALS input processing (HERMIT) ******************
 ***************************************************************************************


 - Using defaults, no **INTEGRALS input found

 Default print level:        1

 Calculation of one- and two-electron Hamiltonian integrals.

 Center of mass  (bohr):      0.000000000000      0.000000244624      0.000000000000
 Operator center (bohr):      0.000000000000      0.000000000000      0.000000000000
 Gauge origin    (bohr):      0.000000000000      0.000000244624      0.000000000000
 Dipole origin   (bohr):      0.000000000000      0.000000244624      0.000000000000


     ************************************************************************
     ************************** Output from HERINT **************************
     ************************************************************************



                      Nuclear contribution to dipole moments
                      --------------------------------------

                 au               Debye          C m (/(10**-30)

      y      0.93221302         2.36944899         7.90363109



 Threshold for neglecting two-electron integrals:  1.00D-12
 HERMIT - Number of two-electron integrals written:       57092 ( 25.7% )
 HERMIT - Megabytes written:                              0.660

  Total CPU  time used in HERMIT:   0.03 seconds
  Total wall time used in HERMIT:   0.05 seconds


                        .----------------------------------.
                        | End of Integral Section (HERMIT) |
                        `----------------------------------'



                   .--------------------------------------------.
                   | Starting in Wave Function Section (SIRIUS) |
                   `--------------------------------------------'


 *** Output from Huckel module :

     Using EWMO model:          F
     Using EHT  model:          T
     Number of Huckel orbitals each symmetry:    4    1    2    0

 Huckel EHT eigenvalues for symmetry :  1
          -20.704402      -1.498160      -0.665239      -0.297289

 Huckel EHT eigenvalues for symmetry :  2
           -0.616200

 Huckel EHT eigenvalues for symmetry :  3
           -0.738496      -0.260113

 **********************************************************************
 *SIRIUS* a direct, restricted step, second order MCSCF program       *
 **********************************************************************

 
     Date and time (Linux)  : Mon May 13 10:05:42 2019
     Host name              : Lab2-333-NPs                            

 Title lines from ".mol" input file:
      water                                                                  
      Generated by the Dalton Input File Plugin for Avogadro                 

 Print level on unit LUPRI =   2 is   0
 Print level on unit LUW4  =   2 is   5

@    Restricted, closed shell Kohn-Sham DFT calculation.

 Initial molecular orbitals are obtained according to
 ".MOSTART EHT   " input option

     Wave function specification
     ============================
@    Wave function type        --- KS-DFT ---
@    Number of closed shell electrons          10
@    Number of electrons in active shells       0
@    Total charge of the molecule               0

@    Spin multiplicity and 2 M_S                1         0
@    Total number of symmetries                 4 (point group: C2v)
@    Reference state symmetry                   1 (irrep name : A1 )
 
     This is a DFT calculation of type: B3LYP
 Weighted mixed functional:
               HF exchange:    0.20000
                       VWN:    0.19000
                       LYP:    0.81000
                     Becke:    0.72000
                    Slater:    0.80000

     Orbital specifications
     ======================
@    Abelian symmetry species          All |    1    2    3    4
@                                          |  A1   B2   B1   A2 
                                       --- |  ---  ---  ---  ---
@    Total number of orbitals           36 |   17    6   11    2
@    Number of basis functions          36 |   17    6   11    2

      ** Automatic occupation of RKS orbitals **

      -- Initial occupation of symmetries is determined from extended Huckel guess.           
      -- Initial occupation of symmetries is :
@    Occupied SCF orbitals               5 |    3    1    1    0

     Maximum number of Fock   iterations      0
     Maximum number of DIIS   iterations     60
     Maximum number of QC-SCF iterations     60
     Threshold for SCF convergence     1.00D-05
 
     This is a DFT calculation of type: B3LYP
 Weighted mixed functional:
               HF exchange:    0.20000
                       VWN:    0.19000
                       LYP:    0.81000
                     Becke:    0.72000
                    Slater:    0.80000


 ***********************************************
 ***** DIIS acceleration of SCF iterations *****
 ***********************************************

 C1-DIIS algorithm; max error vectors =    8

 Automatic occupation of symmetries with  10 electrons.

 Iter     Total energy    Error norm  Delta(E)    SCF occupation
 -----------------------------------------------------------------------------
      K-S energy, electrons, error :     -7.445674870662   9.9999997962   -2.04D-07
@  1  -76.2110442838       2.36D+00  -7.62D+01     3   1   1   0
      Virial theorem: -V/T =      2.002481
@    MULPOP   O      -0.56; H   _1  0.28; H   _2  0.28; 
   1  Level shift: doubly occupied orbital energies shifted by -2.00D-01
 -----------------------------------------------------------------------------
      K-S energy, electrons, error :     -7.534287038217   9.9999997578   -2.42D-07
@  2  -76.4112975353       4.91D-01  -2.00D-01     3   1   1   0
      Virial theorem: -V/T =      2.000787
@    MULPOP   O      -0.47; H   _1  0.24; H   _2  0.24; 
   2  Level shift: doubly occupied orbital energies shifted by -5.00D-02
 -----------------------------------------------------------------------------
      K-S energy, electrons, error :     -7.477390443163   9.9999997501   -2.50D-07
@  3  -76.4195031773       1.83D-01  -8.21D-03     3   1   1   0
      Virial theorem: -V/T =      2.006564
@    MULPOP   O      -0.49; H   _1  0.24; H   _2  0.24; 
   3  Level shift: doubly occupied orbital energies shifted by -2.50D-02
 -----------------------------------------------------------------------------
      K-S energy, electrons, error :     -7.533532625597   9.9999997466   -2.53D-07
@  4  -76.4197872455       1.61D-01  -2.84D-04     3   1   1   0
      Virial theorem: -V/T =      2.000052
@    MULPOP   O      -0.55; H   _1  0.27; H   _2  0.27; 
   4  Level shift: doubly occupied orbital energies shifted by -2.50D-02
 -----------------------------------------------------------------------------
      K-S energy, electrons, error :     -7.505440636862   9.9999997473   -2.53D-07
@  5  -76.4208611971       8.25D-03  -1.07D-03     3   1   1   0
      Virial theorem: -V/T =      2.003212
@    MULPOP   O      -0.52; H   _1  0.26; H   _2  0.26; 
 -----------------------------------------------------------------------------
      K-S energy, electrons, error :     -7.506383683779   9.9999997471   -2.53D-07
@  6  -76.4208640823       4.23D-04  -2.89D-06     3   1   1   0
      Virial theorem: -V/T =      2.003091
@    MULPOP   O      -0.52; H   _1  0.26; H   _2  0.26; 
 -----------------------------------------------------------------------------
      K-S energy, electrons, error :     -7.506450240304   9.9999997471   -2.53D-07
@  7  -76.4208640915       4.50D-05  -9.15D-09     3   1   1   0
      Virial theorem: -V/T =      2.003084
@    MULPOP   O      -0.52; H   _1  0.26; H   _2  0.26; 
 -----------------------------------------------------------------------------
      K-S energy, electrons, error :     -7.506441702227   9.9999997471   -2.53D-07
@  8  -76.4208640916       6.32D-06  -1.03D-10     3   1   1   0

@ *** DIIS converged in   8 iterations !
@     Converged SCF energy, gradient:    -76.420864091563    6.32D-06
    - total time used in SIRFCK :              0.00 seconds


 *** SCF orbital energy analysis ***

 Only the 20 lowest virtual orbital energies printed in each symmetry.

 Number of electrons :   10
 Orbital occupations :    3    1    1    0

 Sym       Kohn-Sham orbital energies

1 A1    -19.12931002    -1.01338770    -0.38458286    -0.02128576     0.13765846
          0.15403211     0.22571325     0.53161467     0.95846743     1.27302978
          1.38139977     2.09856354     2.42289077     3.28306016     3.69818872
          5.26352860    49.85195507

2 B2     -0.31805754     0.15395700     0.99656652     1.48320802     3.06220921
          4.92520443

3 B1     -0.54435300     0.03009372     0.15667409     0.22154984     0.50551989
          1.00202118     1.62333043     1.99328486     2.55541742     3.85272116
          5.62142761

4 A2      1.23967051     3.14659732

    E(LUMO) :    -0.02128576 au (symmetry 1)
  - E(HOMO) :    -0.31805754 au (symmetry 2)
  ------------------------------------------
    gap     :     0.29677178 au

 --- Writing SIRIFC interface file

 CPU and wall time for SCF :       1.828       1.841


                       .-----------------------------------.
                       | --- Final results from SIRIUS --- |
                       `-----------------------------------'


@    Spin multiplicity:           1
@    Spatial symmetry:            1 ( irrep  A1  in C2v )
@    Total charge of molecule:    0

@    Final DFT energy:            -76.420864091563                 
@    Nuclear repulsion:             9.062771462432
@    Electronic energy:           -85.483635553995

@    Final gradient norm:           0.000006315325

 
     Date and time (Linux)  : Mon May 13 10:05:44 2019
     Host name              : Lab2-333-NPs                            

File label for MO orbitals:  13May19   FOCKDIIS

 (Only coefficients > 0.0100 are printed.)

 Molecular orbitals for symmetry species 1  (A1 )
 ------------------------------------------------

    Orbital         1        2        3        4        5        6        7
   1 O   :1s     0.5513  -0.1167   0.0421   0.0303   0.0305  -0.0210   0.0281
   2 O   :1s     0.4698  -0.1869   0.0688   0.0502   0.0492  -0.0345   0.0443
   3 O   :1s     0.0128   0.5439  -0.2100  -0.1708  -0.1316   0.1131  -0.0811
   4 O   :1s    -0.0052   0.3654  -0.3027  -0.2790  -0.6704   0.2141  -1.1170
   5 O   :1s     0.0048  -0.0093  -0.0363  -0.8415  -2.0126   2.2964   8.0633
   6 O   :2py    0.0013   0.0510   0.2640  -0.0717  -0.1169  -0.0929   0.0127
   7 O   :2py    0.0003   0.0785   0.3766  -0.1045  -0.1617  -0.0894  -0.0262
   8 O   :2py    0.0003   0.0283   0.2970  -0.1555  -0.3111  -0.4346   0.0766
   9 O   :2py    0.0006  -0.0002   0.0819  -0.1025  -0.6282   2.0204   2.0087
  10 O   :3d0    0.0003   0.0068  -0.0062   0.0037   0.0132  -0.0066  -0.0207
  11 O   :3d2+  -0.0002  -0.0069  -0.0150   0.0030   0.0006   0.0107   0.0105
  12 H   :1s    -0.0000   0.0969   0.0853   0.0211   0.0807  -0.0367  -0.0199
  13 H   :1s    -0.0005   0.0825   0.1341   0.1020   0.0666   0.0285   0.0892
  14 H   :1s    -0.0009   0.0000   0.0348   0.3784   2.3514  -1.7098  -3.5413
  15 H   :1s    -0.0006   0.0060   0.0014   0.5834  -0.8476   0.1022  -0.5267
  16 H   :2py    0.0006  -0.0119   0.0158   0.0094   0.0007   0.0116  -0.0021
  17 H   :2pz    0.0008  -0.0230  -0.0256   0.0195   0.0226  -0.0223  -0.0267

    Orbital         8        9       10       11       12       13
   1 O   :1s    -0.0332  -0.0008   0.0646  -0.0924  -0.0459   0.0338
   2 O   :1s    -0.0568  -0.0050   0.1270  -0.1857  -0.0890   0.0782
   3 O   :1s     0.1805   0.1921  -0.9653   1.5797   0.4880  -0.5380
   4 O   :1s     0.9435  -1.4739   1.7379  -4.0609   0.4596  -2.2449
   5 O   :1s    -4.1706   1.9604  -2.0799   3.5689   0.9647   2.1605
   6 O   :2py    0.1105   0.2499   0.0392  -0.0160   0.1457   0.0226
   7 O   :2py    0.2057   0.6998   0.2784  -0.1290   0.3559  -0.4975
   8 O   :2py    0.7271  -2.0116  -0.8174  -1.2631   0.0871  -0.9772
   9 O   :2py   -1.4566   1.2926  -0.1283   0.8209   0.2942   0.6989
  10 O   :3d0   -0.0243   0.0018  -0.0820  -0.0709  -0.1857  -0.0852
  11 O   :3d2+   0.0011   0.0108  -0.0858  -0.0841   0.1963  -0.0657
  12 H   :1s    -0.1237   0.0208  -0.0221  -0.0313  -0.6238  -0.9328
  13 H   :1s    -1.7778   0.8850   0.0773   1.5444   0.5646   2.7864
  14 H   :1s     3.7171  -1.0317   0.4302  -1.4922  -1.1620  -1.9957
  15 H   :1s    -0.4573  -0.1017   0.2310  -0.2112   0.1821   0.2037
  16 H   :2py    0.0337  -0.2105   0.5323   0.2104   0.3120  -0.4845
  17 H   :2pz    0.0028  -0.1082  -0.2080  -0.5030   0.6310  -0.7730

 Molecular orbitals for symmetry species 2  (B2 )
 ------------------------------------------------

    Orbital         1        2        3        4        5        6
   1 O   :2px    0.2984   0.1403  -0.2700   0.0186   0.0044  -1.2734
   2 O   :2px    0.4325   0.1478  -0.8430  -0.0541   0.0187   1.5149
   3 O   :2px    0.3956   0.5211   1.5936   0.7684  -0.3075  -0.8192
   4 O   :2px    0.1169  -1.2397  -0.7869  -0.1427   0.0517   0.3053
   5 O   :3d2-   0.0164   0.0074  -0.0018  -0.1589  -1.0254   0.0056
   6 H   :2px    0.0336  -0.0132   0.0420  -0.7695   0.3487  -0.0320

 Molecular orbitals for symmetry species 3  (B1 )
 ------------------------------------------------

    Orbital         1        2        3        4        5        6        7
   1 O   :2pz    0.2405  -0.0859  -0.1269  -0.1216   0.1457  -0.2362  -0.0256
   2 O   :2pz    0.3447  -0.1299  -0.1659  -0.1409   0.2511  -0.6701  -0.1443
   3 O   :2pz    0.2005  -0.1140  -0.3381  -0.5709   0.9107   2.4297   1.2037
   4 O   :2pz    0.0152  -0.4781  -1.7181   2.7550  -1.6767  -1.7047  -0.4520
   5 O   :3d1-   0.0236   0.0007   0.0193  -0.0209  -0.0252   0.0028   0.0335
   6 H   :1s     0.1543   0.0019   0.0865  -0.0083  -0.1220  -0.0201   0.0661
   7 H   :1s     0.2057   0.0383   0.0660   0.1128  -1.5866  -0.8032  -0.7737
   8 H   :1s     0.0498   0.3924   3.0104  -1.2329   3.4431   0.5946   0.5880
   9 H   :1s     0.0085   1.9938  -1.2692  -1.9607  -0.8474   0.9101  -0.0016
  10 H   :2py   -0.0223   0.0152   0.0316  -0.0123  -0.0176   0.0835   0.6377
  11 H   :2pz   -0.0162   0.0162   0.0101   0.0104   0.0219   0.2041  -0.4874

    Orbital         8        9       10       11
   1 O   :2pz   -0.1865  -0.0217  -0.4180  -1.2576
   2 O   :2pz   -0.5316   0.7588   0.0559   2.0394
   3 O   :2pz    0.0045   1.0758  -1.3646  -0.2960
   4 O   :2pz   -0.4037  -0.6800   0.6512   0.2446
   5 O   :3d1-   0.2089   0.2135  -1.1826   0.5996
   6 H   :1s     0.5690   0.9533   0.3344  -0.3317
   7 H   :1s    -0.6543  -2.5615   0.8164  -0.3980
   8 H   :1s     1.3018   1.7020  -0.3156  -0.0338
   9 H   :1s    -0.4064  -0.3760  -0.2958  -0.1408
  10 H   :2py   -0.5280   0.5960  -0.3744   0.4230
  11 H   :2pz   -0.4658   0.7453  -0.5300   0.5294

 Molecular orbitals for symmetry species 4  (A2 )
 ------------------------------------------------

    Orbital         1        2
   1 O   :3d1+  -0.1342   1.0521
   2 H   :2px   -0.6817  -0.3435

  Total CPU  time used in SIRIUS :   1.83 seconds
  Total wall time used in SIRIUS :   1.86 seconds

 
     Date and time (Linux)  : Mon May 13 10:05:44 2019
     Host name              : Lab2-333-NPs                            


                     .---------------------------------------.
                     | End of Wave Function Section (SIRIUS) |
                     `---------------------------------------'


 Center of mass dipole origin  :    0.000000    0.000000    0.000000

 Center of mass gauge origin   :    0.000000    0.000000    0.000000


                 .------------------------------------------------.
                 | Starting in Static Property Section (ABACUS) - |
                 `------------------------------------------------'


 
     Date and time (Linux)  : Mon May 13 10:05:44 2019
     Host name              : Lab2-333-NPs                            

 Largest deviation from tra-rot symmetry is in gradient element  1:  5.08E-06


   ***************************************************************************
   ************************ FINAL RESULTS from ABACUS ************************
   ***************************************************************************


 
     Date and time (Linux)  : Mon May 13 10:05:45 2019
     Host name              : Lab2-333-NPs                            


                             Molecular geometry (au)
                             -----------------------

 O          0.0000000000           -0.1184402842            0.0000000000
 H   _1     0.0000000000            0.9398688679            1.4966622200
 H   _2     0.0000000000            0.9398688679           -1.4966622200





                        Molecular wave function and energy
                        ----------------------------------

     Spatial symmetry   1 ( A1  )
     Spin multiplicity  1
     2 * M_S            0
     State number       1
     Total charge       0

     Total energy        -76.4208640916 au (Hartrees)
                         -2079.51749445 eV
                           -200642.9477 kJ/mol
                            -47954.8154 kcal/mol


                   Scalar Breit-Pauli relativistic corrections
                   -------------------------------------------

     Darwin correction:                          0.1976202682 au
     Mass-velocity correction:                  -0.2495728305 au

     Total relativistic correction:             -0.0519525623 au ( 0.0680%)
     Non-relativistic + relativistic energy:   -76.4728166539 au



      (Note that these corrections are NOT included in the results below.)


                             Molecular gradient (au)
                             -----------------------

                         O   y     -0.0003627593
                         H   y      0.0003678384
                         H   z      0.0232685441



 O          0.0000000000           -0.0003627593            0.0000000000
 H   _1     0.0000000000            0.0001839192            0.0116342720
 H   _2     0.0000000000            0.0001839192           -0.0116342720





                                  Dipole moment
                                  -------------

                 au               Debye          C m (/(10**-30)
              0.825465           2.098123           6.998585


                             Dipole moment components
                             ------------------------

                 au               Debye          C m (/(10**-30)

      y      0.82546518         2.09812309         6.99858529


   Units:   1 a.u. =   2.54175 Debye 
            1 a.u. =   8.47835 (10**-30) C m (SI)




   Interatomic separations (in Angstrom):
   --------------------------------------

            O           H   _1      H   _2
            ------      ------      ------
 O     :    0.000000
 H   _1:    0.970000    0.000000
 H   _2:    0.970000    1.583999    0.000000


  Max    interatomic separation is    1.5840 Angstrom (    2.9933 Bohr)
  between atoms    3 and    2, "H   _2" and "H   _1".

  Min HX interatomic separation is    0.9700 Angstrom (    1.8330 Bohr)


  Bond distances (Angstrom):
  --------------------------

                  atom 1     atom 2       distance
                  ------     ------       --------
  bond distance:  H   _1     O            0.970000
  bond distance:  H   _2     O            0.970000


  Bond angles (degrees):
  ----------------------

                  atom 1     atom 2     atom 3         angle
                  ------     ------     ------         -----
  bond angle:     H   _1     O          H   _2       109.471


  Total CPU  time used in ABACUS:   0.59 seconds
  Total wall time used in ABACUS:   0.59 seconds


                   .-------------------------------------------.
                   | End of Static Property Section (ABACUS) - |
                   `-------------------------------------------'


Building simple model Hessian by Roland Lindh ...

Initial model Hessian in internal coordinates has been calculated


           :::::::::::::::::::::::::::::::::::::::::::::::::::::::::::
           ::::::::::::::: Optimization Control Center :::::::::::::::
           :::::::::::::::::::::::::::::::::::::::::::::::::::::::::::



                                Next geometry (au)
                                ------------------

 O          0.0000000000           -0.1304641829            0.0000000000
 H   _1     0.0000000000            0.9458808172            1.4666726088
 H   _2     0.0000000000            0.9458808172           -1.4666726088





                             Optimization information
                             ------------------------

 Iteration number               :       0
 End of optimization            :       F 
 Energy at this geometry is     :     -76.420864091563
 Norm of gradient               :       0.016459399101
 Norm of step                   :       0.072220303017
 Updated trust radius           :       0.500000000000
 Total effective Hessian index  :       0




 **************************************************************************************
 ****************** Output of molecule and basis set info suppressed ******************
 **************************************************************************************



                     .---------------------------------------.
                     | Starting in Integral Section (HERMIT) |
                     `---------------------------------------'



 ***************************************************************************************
 ****************** Output from **INTEGRALS input processing (HERMIT) ******************
 ***************************************************************************************


 - Using defaults, no **INTEGRALS input found

 Default print level:       -1

 Calculation of one- and two-electron Hamiltonian integrals.

 Center of mass  (bohr):      0.000000000000     -0.010005174529      0.000000000000
 Operator center (bohr):      0.000000000000      0.000000000000      0.000000000000
 Gauge origin    (bohr):      0.000000000000      0.000000000000      0.000000000000
 Dipole origin   (bohr):      0.000000000000      0.000000000000      0.000000000000


                      Nuclear contribution to dipole moments
                      --------------------------------------

                 au               Debye          C m (/(10**-30)

      y      0.84804817         2.15552331         7.19005182



 Threshold for neglecting two-electron integrals:  1.00D-12
 HERMIT - Number of two-electron integrals written:       57092 ( 25.7% )
 HERMIT - Megabytes written:                              0.660

  Total CPU  time used in HERMIT:   0.02 seconds
  Total wall time used in HERMIT:   0.02 seconds


                        .----------------------------------.
                        | End of Integral Section (HERMIT) |
                        `----------------------------------'



                   .--------------------------------------------.
                   | Starting in Wave Function Section (SIRIUS) |
                   `--------------------------------------------'

* Read MO coefficients from SIRIUS.RST with label "NEWORB  " and header info: 13May19  FOCKDIIS

 **********************************************************************
 *SIRIUS* a direct, restricted step, second order MCSCF program       *
 **********************************************************************

 (Wave function specification suppressed here, see output above for initial geometry.)


 ***********************************************
 ***** DIIS acceleration of SCF iterations *****
 ***********************************************

 C1-DIIS algorithm; max error vectors =    8

 Iter      Total energy        Error norm    Delta(E)  DIIS dim.
 -----------------------------------------------------------------------------

Calculating AODFTINT
     (Precalculated AO two-electron integrals are transformed to P-supermatrix elements.
      Threshold for discarding integrals :  1.00D-12 )
      K-S energy, electrons, error :     -7.509550412655   9.9999998148   -1.85D-07
@  1    -76.4212656509        3.70343D-02   -4.02D-04    1
      Virial theorem: -V/T =      2.002956
@    MULPOP   O      -0.52; H   _1  0.26; H   _2  0.26; 
 -----------------------------------------------------------------------------
      K-S energy, electrons, error :     -7.514961046338   9.9999998142   -1.86D-07
@  2    -76.4213326441        1.56346D-02   -6.70D-05    2
      Virial theorem: -V/T =      2.002404
@    MULPOP   O      -0.51; H   _1  0.26; H   _2  0.26; 
 -----------------------------------------------------------------------------
      K-S energy, electrons, error :     -7.509415990568   9.9999998146   -1.85D-07
@  3    -76.4213314716        1.67049D-02    1.17D-06    3
      Virial theorem: -V/T =      2.003019
@    MULPOP   O      -0.51; H   _1  0.25; H   _2  0.25; 
 -----------------------------------------------------------------------------
      K-S energy, electrons, error :     -7.512270165704   9.9999998144   -1.86D-07
@  4    -76.4213429704        6.58074D-04   -1.15D-05    4
      Virial theorem: -V/T =      2.002700
@    MULPOP   O      -0.51; H   _1  0.26; H   _2  0.26; 
 -----------------------------------------------------------------------------
      K-S energy, electrons, error :     -7.512234761729   9.9999998144   -1.86D-07
@  5    -76.4213429878        5.53652D-05   -1.74D-08    5
      Virial theorem: -V/T =      2.002704
@    MULPOP   O      -0.51; H   _1  0.26; H   _2  0.26; 
 -----------------------------------------------------------------------------
      K-S energy, electrons, error :     -7.512240596516   9.9999998144   -1.86D-07
@  6    -76.4213429880        3.05574D-06   -1.47D-10    6

@ *** DIIS converged in   6 iterations !
@     Converged SCF energy, gradient:    -76.421342987988    3.06D-06
    - total time used in SIRFCK :              0.00 seconds


 *** SCF orbital energy analysis ***

 Only the 20 lowest virtual orbital energies printed in each symmetry.

 Number of electrons :   10
 Orbital occupations :    3    1    1    0

 Sym       Kohn-Sham orbital energies

1 A1    -19.12903333    -1.01785773    -0.38889235    -0.02077640     0.14008178
          0.15491659     0.22649690     0.54134511     0.95744568     1.25694115
          1.36572327     2.11487008     2.40915490     3.30088077     3.68782284
          5.28593929    49.85799582

2 B2     -0.31905096     0.15389434     0.99636669     1.47507064     3.07830170
          4.92526987

3 B1     -0.54378937     0.03075648     0.15740298     0.22206013     0.50531460
          1.00379255     1.64415332     1.99413251     2.56029102     3.87220910
          5.63076671

4 A2      1.24644428     3.14706005

    E(LUMO) :    -0.02077640 au (symmetry 1)
  - E(HOMO) :    -0.31905096 au (symmetry 2)
  ------------------------------------------
    gap     :     0.29827456 au

 --- Writing SIRIFC interface file

 CPU and wall time for SCF :       1.344       1.375


                       .-----------------------------------.
                       | --- Final results from SIRIUS --- |
                       `-----------------------------------'


@    Spin multiplicity:           1
@    Spatial symmetry:            1 ( irrep  A1  in C2v )
@    Total charge of molecule:    0

@    Final DFT energy:            -76.421342987988                 
@    Nuclear repulsion:             9.135771918046
@    Electronic energy:           -85.557114906033

@    Final gradient norm:           0.000003055738

 
     Date and time (Linux)  : Mon May 13 10:05:46 2019
     Host name              : Lab2-333-NPs                            

  Total CPU  time used in SIRIUS :   1.34 seconds
  Total wall time used in SIRIUS :   1.38 seconds

 
     Date and time (Linux)  : Mon May 13 10:05:46 2019
     Host name              : Lab2-333-NPs                            


                     .---------------------------------------.
                     | End of Wave Function Section (SIRIUS) |
                     `---------------------------------------'

 Trust radius increased due to good ratio.
 Updated trust radius   0.50000

 Center of mass dipole origin  :    0.000000   -0.010005    0.000000

 Center of mass gauge origin   :    0.000000   -0.010005    0.000000


                 .------------------------------------------------.
                 | Starting in Static Property Section (ABACUS) - |
                 `------------------------------------------------'


 
     Date and time (Linux)  : Mon May 13 10:05:46 2019
     Host name              : Lab2-333-NPs                            

 Largest deviation from tra-rot symmetry is in gradient element  1:  3.91E-06


   ***************************************************************************
   ************************ FINAL RESULTS from ABACUS ************************
   ***************************************************************************


 
     Date and time (Linux)  : Mon May 13 10:05:47 2019
     Host name              : Lab2-333-NPs                            
  Total CPU  time used in ABACUS:   0.59 seconds
  Total wall time used in ABACUS:   0.59 seconds


                   .-------------------------------------------.
                   | End of Static Property Section (ABACUS) - |
                   `-------------------------------------------'



           :::::::::::::::::::::::::::::::::::::::::::::::::::::::::::
           ::::::::::::::: Optimization Control Center :::::::::::::::
           :::::::::::::::::::::::::::::::::::::::::::::::::::::::::::



                                Next geometry (au)
                                ------------------

 O          0.0000000000           -0.1443830427            0.0000000000
 H   _1     0.0000000000            0.9528402471            1.4455558706
 H   _2     0.0000000000            0.9528402471           -1.4455558706





                             Optimization information
                             ------------------------

 Iteration number               :       1
 End of optimization            :       F 
 Energy at this geometry is     :     -76.421342987988
 Energy change from last geom.  :      -0.000478896424
 Predicted change               :      -0.000345620691
 Ratio, actual/predicted change :       1.385612714132
 Norm of gradient               :       0.006536906555
 Norm of step                   :       0.053541536727
 Updated trust radius           :       0.500000000000
 Total effective Hessian index  :       0




 **************************************************************************************
 ****************** Output of molecule and basis set info suppressed ******************
 **************************************************************************************



                     .---------------------------------------.
                     | Starting in Integral Section (HERMIT) |
                     `---------------------------------------'



 ***************************************************************************************
 ****************** Output from **INTEGRALS input processing (HERMIT) ******************
 ***************************************************************************************


 - Using defaults, no **INTEGRALS input found

 Default print level:       -1

 Calculation of one- and two-electron Hamiltonian integrals.

 Center of mass  (bohr):      0.000000000000     -0.021587443307      0.000000000000
 Operator center (bohr):      0.000000000000      0.000000000000      0.000000000000
 Gauge origin    (bohr):      0.000000000000      0.000000000000      0.000000000000
 Dipole origin   (bohr):      0.000000000000      0.000000000000      0.000000000000


                      Nuclear contribution to dipole moments
                      --------------------------------------

                 au               Debye          C m (/(10**-30)

      y      0.75061615         1.90787584         6.36398877



 Threshold for neglecting two-electron integrals:  1.00D-12
 HERMIT - Number of two-electron integrals written:       57092 ( 25.7% )
 HERMIT - Megabytes written:                              0.660

  Total CPU  time used in HERMIT:   0.03 seconds
  Total wall time used in HERMIT:   0.02 seconds


                        .----------------------------------.
                        | End of Integral Section (HERMIT) |
                        `----------------------------------'



                   .--------------------------------------------.
                   | Starting in Wave Function Section (SIRIUS) |
                   `--------------------------------------------'

* Read MO coefficients from SIRIUS.RST with label "NEWORB  " and header info: 13May19  FOCKDIIS

 **********************************************************************
 *SIRIUS* a direct, restricted step, second order MCSCF program       *
 **********************************************************************

 (Wave function specification suppressed here, see output above for initial geometry.)


 ***********************************************
 ***** DIIS acceleration of SCF iterations *****
 ***********************************************

 C1-DIIS algorithm; max error vectors =    8

 Iter      Total energy        Error norm    Delta(E)  DIIS dim.
 -----------------------------------------------------------------------------

Calculating AODFTINT because geometry has changed.
     (Precalculated AO two-electron integrals are transformed to P-supermatrix elements.
      Threshold for discarding integrals :  1.00D-12 )
      K-S energy, electrons, error :     -7.513167402349   9.9999998328   -1.67D-07
@  1    -76.4214150099        2.73163D-02   -7.20D-05    1
      Virial theorem: -V/T =      2.002667
@    MULPOP   O      -0.51; H   _1  0.26; H   _2  0.26; 
 -----------------------------------------------------------------------------
      K-S energy, electrons, error :     -7.515100413602   9.9999998327   -1.67D-07
@  2    -76.4214635184        4.95455D-03   -4.85D-05    2
      Virial theorem: -V/T =      2.002457
@    MULPOP   O      -0.51; H   _1  0.25; H   _2  0.25; 
 -----------------------------------------------------------------------------
      K-S energy, electrons, error :     -7.513053152989   9.9999998329   -1.67D-07
@  3    -76.4214625584        7.17353D-03    9.60D-07    3
      Virial theorem: -V/T =      2.002684
@    MULPOP   O      -0.50; H   _1  0.25; H   _2  0.25; 
 -----------------------------------------------------------------------------
      K-S energy, electrons, error :     -7.514308352159   9.9999998328   -1.67D-07
@  4    -76.4214646759        3.46122D-04   -2.12D-06    4
      Virial theorem: -V/T =      2.002544
@    MULPOP   O      -0.50; H   _1  0.25; H   _2  0.25; 
 -----------------------------------------------------------------------------
      K-S energy, electrons, error :     -7.514274626807   9.9999998328   -1.67D-07
@  5    -76.4214646810        4.60686D-05   -5.05D-09    5
      Virial theorem: -V/T =      2.002547
@    MULPOP   O      -0.50; H   _1  0.25; H   _2  0.25; 
 -----------------------------------------------------------------------------
      K-S energy, electrons, error :     -7.514276604189   9.9999998328   -1.67D-07
@  6    -76.4214646811        2.89261D-06   -9.17D-11    6

@ *** DIIS converged in   6 iterations !
@     Converged SCF energy, gradient:    -76.421464681076    2.89D-06
    - total time used in SIRFCK :              0.00 seconds


 *** SCF orbital energy analysis ***

 Only the 20 lowest virtual orbital energies printed in each symmetry.

 Number of electrons :   10
 Orbital occupations :    3    1    1    0

 Sym       Kohn-Sham orbital energies

1 A1    -19.12939539    -1.02016638    -0.39251863    -0.02077759     0.14086486
          0.15588938     0.22739726     0.54736738     0.95725639     1.23918087
          1.35640735     2.12264860     2.40038555     3.30853560     3.67645751
          5.30098481    49.85926513

2 B2     -0.31960202     0.15385028     0.99616582     1.46610149     3.08949353
          4.92502506

3 B1     -0.54143214     0.03107922     0.15695264     0.22249841     0.50305197
          1.00566021     1.65941886     1.98892370     2.56618014     3.88512671
          5.62527889

4 A2      1.25235022     3.14305034

    E(LUMO) :    -0.02077759 au (symmetry 1)
  - E(HOMO) :    -0.31960202 au (symmetry 2)
  ------------------------------------------
    gap     :     0.29882443 au

 --- Writing SIRIFC interface file

 CPU and wall time for SCF :       1.359       1.366


                       .-----------------------------------.
                       | --- Final results from SIRIUS --- |
                       `-----------------------------------'


@    Spin multiplicity:           1
@    Spatial symmetry:            1 ( irrep  A1  in C2v )
@    Total charge of molecule:    0

@    Final DFT energy:            -76.421464681076                 
@    Nuclear repulsion:             9.162243798761
@    Electronic energy:           -85.583708479837

@    Final gradient norm:           0.000002892608

 
     Date and time (Linux)  : Mon May 13 10:05:48 2019
     Host name              : Lab2-333-NPs                            

  Total CPU  time used in SIRIUS :   1.36 seconds
  Total wall time used in SIRIUS :   1.37 seconds

 
     Date and time (Linux)  : Mon May 13 10:05:48 2019
     Host name              : Lab2-333-NPs                            


                     .---------------------------------------.
                     | End of Wave Function Section (SIRIUS) |
                     `---------------------------------------'

 Trust radius increased due to good ratio.
 Updated trust radius   0.50000

 Center of mass dipole origin  :    0.000000   -0.021587    0.000000

 Center of mass gauge origin   :    0.000000   -0.021587    0.000000


                 .------------------------------------------------.
                 | Starting in Static Property Section (ABACUS) - |
                 `------------------------------------------------'


 
     Date and time (Linux)  : Mon May 13 10:05:48 2019
     Host name              : Lab2-333-NPs                            

 Largest deviation from tra-rot symmetry is in gradient element  1:  3.44E-06


   ***************************************************************************
   ************************ FINAL RESULTS from ABACUS ************************
   ***************************************************************************


 
     Date and time (Linux)  : Mon May 13 10:05:49 2019
     Host name              : Lab2-333-NPs                            
  Total CPU  time used in ABACUS:   0.59 seconds
  Total wall time used in ABACUS:   0.58 seconds


                   .-------------------------------------------.
                   | End of Static Property Section (ABACUS) - |
                   `-------------------------------------------'



           :::::::::::::::::::::::::::::::::::::::::::::::::::::::::::
           ::::::::::::::: Optimization Control Center :::::::::::::::
           :::::::::::::::::::::::::::::::::::::::::::::::::::::::::::



                                Next geometry (au)
                                ------------------

 O          0.0000000000           -0.1487956969            0.0000000000
 H   _1     0.0000000000            0.9550465742            1.4430869579
 H   _2     0.0000000000            0.9550465742           -1.4430869579





                             Optimization information
                             ------------------------

 Iteration number               :       2
 End of optimization            :       F 
 Energy at this geometry is     :     -76.421464681076
 Energy change from last geom.  :      -0.000121693089
 Predicted change               :      -0.000108782722
 Ratio, actual/predicted change :       1.118680306594
 Norm of gradient               :       0.004097930610
 Norm of step                   :       0.009394000817
 Updated trust radius           :       0.500000000000
 Total effective Hessian index  :       0




 **************************************************************************************
 ****************** Output of molecule and basis set info suppressed ******************
 **************************************************************************************



                     .---------------------------------------.
                     | Starting in Integral Section (HERMIT) |
                     `---------------------------------------'



 ***************************************************************************************
 ****************** Output from **INTEGRALS input processing (HERMIT) ******************
 ***************************************************************************************


 - Using defaults, no **INTEGRALS input found

 Default print level:       -1

 Calculation of one- and two-electron Hamiltonian integrals.

 Center of mass  (bohr):      0.000000000000     -0.025259335091      0.000000000000
 Operator center (bohr):      0.000000000000      0.000000000000      0.000000000000
 Gauge origin    (bohr):      0.000000000000      0.000000000000      0.000000000000
 Dipole origin   (bohr):      0.000000000000      0.000000000000      0.000000000000


                      Nuclear contribution to dipole moments
                      --------------------------------------

                 au               Debye          C m (/(10**-30)

      y      0.71972757         1.82936490         6.10210448



 Threshold for neglecting two-electron integrals:  1.00D-12
 HERMIT - Number of two-electron integrals written:       57092 ( 25.7% )
 HERMIT - Megabytes written:                              0.660

  Total CPU  time used in HERMIT:   0.02 seconds
  Total wall time used in HERMIT:   0.02 seconds


                        .----------------------------------.
                        | End of Integral Section (HERMIT) |
                        `----------------------------------'



                   .--------------------------------------------.
                   | Starting in Wave Function Section (SIRIUS) |
                   `--------------------------------------------'

* Read MO coefficients from SIRIUS.RST with label "NEWORB  " and header info: 13May19  FOCKDIIS

 **********************************************************************
 *SIRIUS* a direct, restricted step, second order MCSCF program       *
 **********************************************************************

 (Wave function specification suppressed here, see output above for initial geometry.)


 ***********************************************
 ***** DIIS acceleration of SCF iterations *****
 ***********************************************

 C1-DIIS algorithm; max error vectors =    8

 Iter      Total energy        Error norm    Delta(E)  DIIS dim.
 -----------------------------------------------------------------------------

Calculating AODFTINT because geometry has changed.
     (Precalculated AO two-electron integrals are transformed to P-supermatrix elements.
      Threshold for discarding integrals :  1.00D-12 )
      K-S energy, electrons, error :     -7.513736207749   9.9999998157   -1.84D-07
@  1    -76.4214717362        7.09623D-03   -7.06D-06    1
      Virial theorem: -V/T =      2.002575
@    MULPOP   O      -0.50; H   _1  0.25; H   _2  0.25; 
 -----------------------------------------------------------------------------
      K-S energy, electrons, error :     -7.513100093514   9.9999998158   -1.84D-07
@  2    -76.4214750629        2.35501D-03   -3.33D-06    2
      Virial theorem: -V/T =      2.002632
@    MULPOP   O      -0.50; H   _1  0.25; H   _2  0.25; 
 -----------------------------------------------------------------------------
      K-S energy, electrons, error :     -7.514017096758   9.9999998157   -1.84D-07
@  3    -76.4214749191        3.04259D-03    1.44D-07    3
      Virial theorem: -V/T =      2.002529
@    MULPOP   O      -0.50; H   _1  0.25; H   _2  0.25; 
 -----------------------------------------------------------------------------
      K-S energy, electrons, error :     -7.513495097943   9.9999998158   -1.84D-07
@  4    -76.4214753014        1.14107D-04   -3.82D-07    4
      Virial theorem: -V/T =      2.002588
@    MULPOP   O      -0.50; H   _1  0.25; H   _2  0.25; 
 -----------------------------------------------------------------------------
      K-S energy, electrons, error :     -7.513502677074   9.9999998158   -1.84D-07
@  5    -76.4214753020        1.10745D-05   -5.43D-10    5
      Virial theorem: -V/T =      2.002587
@    MULPOP   O      -0.50; H   _1  0.25; H   _2  0.25; 
 -----------------------------------------------------------------------------
      K-S energy, electrons, error :     -7.513502110711   9.9999998158   -1.84D-07
@  6    -76.4214753020        4.13912D-06   -4.99D-12    6

@ *** DIIS converged in   6 iterations !
@     Converged SCF energy, gradient:    -76.421475301992    4.14D-06
    - total time used in SIRFCK :              0.00 seconds


 *** SCF orbital energy analysis ***

 Only the 20 lowest virtual orbital energies printed in each symmetry.

 Number of electrons :   10
 Orbital occupations :    3    1    1    0

 Sym       Kohn-Sham orbital energies

1 A1    -19.12972319    -1.01999540    -0.39322268    -0.02093580     0.14065526
          0.15606677     0.22766491     0.54762869     0.95746658     1.23504300
          1.35543468     2.12161587     2.39931683     3.30764926     3.67296228
          5.30224758    49.85789710

2 B2     -0.31959716     0.15384401     0.99611012     1.46366813     3.09061412
          4.92483712

3 B1     -0.54024453     0.03104800     0.15641299     0.22258138     0.50172373
          1.00617916     1.66137411     1.98540625     2.56805857     3.88624511
          5.61892654

4 A2      1.25345628     3.14051308

    E(LUMO) :    -0.02093580 au (symmetry 1)
  - E(HOMO) :    -0.31959716 au (symmetry 2)
  ------------------------------------------
    gap     :     0.29866137 au

 --- Writing SIRIFC interface file

 CPU and wall time for SCF :       1.359       1.367


                       .-----------------------------------.
                       | --- Final results from SIRIUS --- |
                       `-----------------------------------'


@    Spin multiplicity:           1
@    Spatial symmetry:            1 ( irrep  A1  in C2v )
@    Total charge of molecule:    0

@    Final DFT energy:            -76.421475301992                 
@    Nuclear repulsion:             9.152898437825
@    Electronic energy:           -85.574373739817

@    Final gradient norm:           0.000004139123

 
     Date and time (Linux)  : Mon May 13 10:05:50 2019
     Host name              : Lab2-333-NPs                            

  Total CPU  time used in SIRIUS :   1.38 seconds
  Total wall time used in SIRIUS :   1.37 seconds

 
     Date and time (Linux)  : Mon May 13 10:05:50 2019
     Host name              : Lab2-333-NPs                            


                     .---------------------------------------.
                     | End of Wave Function Section (SIRIUS) |
                     `---------------------------------------'

 Trust radius increased due to good ratio.
 Updated trust radius   0.50000

 Center of mass dipole origin  :    0.000000   -0.025259    0.000000

 Center of mass gauge origin   :    0.000000   -0.025259    0.000000


                 .------------------------------------------------.
                 | Starting in Static Property Section (ABACUS) - |
                 `------------------------------------------------'


 
     Date and time (Linux)  : Mon May 13 10:05:50 2019
     Host name              : Lab2-333-NPs                            

 Largest deviation from tra-rot symmetry is in gradient element  1:  3.73E-06


   ***************************************************************************
   ************************ FINAL RESULTS from ABACUS ************************
   ***************************************************************************


 
     Date and time (Linux)  : Mon May 13 10:05:51 2019
     Host name              : Lab2-333-NPs                            
  Total CPU  time used in ABACUS:   0.61 seconds
  Total wall time used in ABACUS:   0.60 seconds


                   .-------------------------------------------.
                   | End of Static Property Section (ABACUS) - |
                   `-------------------------------------------'



           :::::::::::::::::::::::::::::::::::::::::::::::::::::::::::
           ::::::::::::::: Optimization Control Center :::::::::::::::
           :::::::::::::::::::::::::::::::::::::::::::::::::::::::::::



                                Next geometry (au)
                                ------------------

 O          0.0000000000           -0.1505181718            0.0000000000
 H   _1     0.0000000000            0.9559078117            1.4431069944
 H   _2     0.0000000000            0.9559078117           -1.4431069944





                             Optimization information
                             ------------------------

 Iteration number               :       3
 End of optimization            :       F 
 Energy at this geometry is     :     -76.421475301992
 Energy change from last geom.  :      -0.000010620916
 Predicted change               :      -0.000008106353
 Ratio, actual/predicted change :       1.310196618754
 Norm of gradient               :       0.001691050609
 Norm of step                   :       0.003173588356
 Updated trust radius           :       0.500000000000
 Total effective Hessian index  :       0




 **************************************************************************************
 ****************** Output of molecule and basis set info suppressed ******************
 **************************************************************************************



                     .---------------------------------------.
                     | Starting in Integral Section (HERMIT) |
                     `---------------------------------------'



 ***************************************************************************************
 ****************** Output from **INTEGRALS input processing (HERMIT) ******************
 ***************************************************************************************


 - Using defaults, no **INTEGRALS input found

 Default print level:       -1

 Calculation of one- and two-electron Hamiltonian integrals.

 Center of mass  (bohr):      0.000000000000     -0.026692654180      0.000000000000
 Operator center (bohr):      0.000000000000      0.000000000000      0.000000000000
 Gauge origin    (bohr):      0.000000000000      0.000000000000      0.000000000000
 Dipole origin   (bohr):      0.000000000000      0.000000000000      0.000000000000


                      Nuclear contribution to dipole moments
                      --------------------------------------

                 au               Debye          C m (/(10**-30)

      y      0.70767025         1.79871824         5.99987823



 Threshold for neglecting two-electron integrals:  1.00D-12
 HERMIT - Number of two-electron integrals written:       57092 ( 25.7% )
 HERMIT - Megabytes written:                              0.660

  Total CPU  time used in HERMIT:   0.02 seconds
  Total wall time used in HERMIT:   0.02 seconds


                        .----------------------------------.
                        | End of Integral Section (HERMIT) |
                        `----------------------------------'



                   .--------------------------------------------.
                   | Starting in Wave Function Section (SIRIUS) |
                   `--------------------------------------------'

* Read MO coefficients from SIRIUS.RST with label "NEWORB  " and header info: 13May19  FOCKDIIS

 **********************************************************************
 *SIRIUS* a direct, restricted step, second order MCSCF program       *
 **********************************************************************

 (Wave function specification suppressed here, see output above for initial geometry.)


 ***********************************************
 ***** DIIS acceleration of SCF iterations *****
 ***********************************************

 C1-DIIS algorithm; max error vectors =    8

 Iter      Total energy        Error norm    Delta(E)  DIIS dim.
 -----------------------------------------------------------------------------

Calculating AODFTINT because geometry has changed.
     (Precalculated AO two-electron integrals are transformed to P-supermatrix elements.
      Threshold for discarding integrals :  1.00D-12 )
      K-S energy, electrons, error :     -7.513100884063   9.9999998043   -1.96D-07
@  1    -76.4214762032        3.36877D-03   -9.01D-07    1
      Virial theorem: -V/T =      2.002606
@    MULPOP   O      -0.50; H   _1  0.25; H   _2  0.25; 
 -----------------------------------------------------------------------------
      K-S energy, electrons, error :     -7.512572008821   9.9999998044   -1.96D-07
@  2    -76.4214767640        1.76680D-03   -5.61D-07    2
      Virial theorem: -V/T =      2.002656
@    MULPOP   O      -0.50; H   _1  0.25; H   _2  0.25; 
 -----------------------------------------------------------------------------
      K-S energy, electrons, error :     -7.513148500894   9.9999998043   -1.96D-07
@  3    -76.4214767870        1.61427D-03   -2.30D-08    3
      Virial theorem: -V/T =      2.002592
@    MULPOP   O      -0.50; H   _1  0.25; H   _2  0.25; 
 -----------------------------------------------------------------------------
      K-S energy, electrons, error :     -7.512872875499   9.9999998044   -1.96D-07
@  4    -76.4214768946        8.24571D-05   -1.08D-07    4
      Virial theorem: -V/T =      2.002623
@    MULPOP   O      -0.50; H   _1  0.25; H   _2  0.25; 
 -----------------------------------------------------------------------------
      K-S energy, electrons, error :     -7.512878361921   9.9999998044   -1.96D-07
@  5    -76.4214768949        5.86771D-06   -2.82D-10    5

@ *** DIIS converged in   5 iterations !
@     Converged SCF energy, gradient:    -76.421476894859    5.87D-06
    - total time used in SIRFCK :              0.00 seconds


 *** SCF orbital energy analysis ***

 Only the 20 lowest virtual orbital energies printed in each symmetry.

 Number of electrons :   10
 Orbital occupations :    3    1    1    0

 Sym       Kohn-Sham orbital energies

1 A1    -19.12989873    -1.01971991    -0.39339165    -0.02103228     0.14047958
          0.15610012     0.22776341     0.54735661     0.95760371     1.23390728
          1.35540762     2.12041197     2.39922916     3.30663274     3.67159736
          5.30192828    49.85696661

2 B2     -0.31955396     0.15384340     0.99609017     1.46283984     3.09049026
          4.92473990

3 B1     -0.53968804     0.03100493     0.15611043     0.22260038     0.50106579
          1.00636434     1.66146269     1.98359996     2.56877684     3.88601142
          5.61544940

4 A2      1.25369625     3.13924408

    E(LUMO) :    -0.02103228 au (symmetry 1)
  - E(HOMO) :    -0.31955396 au (symmetry 2)
  ------------------------------------------
    gap     :     0.29852168 au

 --- Writing SIRIFC interface file

 CPU and wall time for SCF :       1.125       1.125


                       .-----------------------------------.
                       | --- Final results from SIRIUS --- |
                       `-----------------------------------'


@    Spin multiplicity:           1
@    Spatial symmetry:            1 ( irrep  A1  in C2v )
@    Total charge of molecule:    0

@    Final DFT energy:            -76.421476894859                 
@    Nuclear repulsion:             9.145208975247
@    Electronic energy:           -85.566685870105

@    Final gradient norm:           0.000005867713

 
     Date and time (Linux)  : Mon May 13 10:05:52 2019
     Host name              : Lab2-333-NPs                            

  Total CPU  time used in SIRIUS :   1.14 seconds
  Total wall time used in SIRIUS :   1.13 seconds

 
     Date and time (Linux)  : Mon May 13 10:05:52 2019
     Host name              : Lab2-333-NPs                            


                     .---------------------------------------.
                     | End of Wave Function Section (SIRIUS) |
                     `---------------------------------------'

 Trust radius squarely increased due to very good ratio.
 Updated trust radius   0.50000

 Center of mass dipole origin  :    0.000000   -0.026693    0.000000

 Center of mass gauge origin   :    0.000000   -0.026693    0.000000


                 .------------------------------------------------.
                 | Starting in Static Property Section (ABACUS) - |
                 `------------------------------------------------'


 
     Date and time (Linux)  : Mon May 13 10:05:52 2019
     Host name              : Lab2-333-NPs                            

 Largest deviation from tra-rot symmetry is in gradient element  1:  3.95E-06


   ***************************************************************************
   ************************ FINAL RESULTS from ABACUS ************************
   ***************************************************************************


 
     Date and time (Linux)  : Mon May 13 10:05:52 2019
     Host name              : Lab2-333-NPs                            
  Total CPU  time used in ABACUS:   0.59 seconds
  Total wall time used in ABACUS:   0.59 seconds


                   .-------------------------------------------.
                   | End of Static Property Section (ABACUS) - |
                   `-------------------------------------------'



           :::::::::::::::::::::::::::::::::::::::::::::::::::::::::::
           ::::::::::::::: Optimization Control Center :::::::::::::::
           :::::::::::::::::::::::::::::::::::::::::::::::::::::::::::



                                Next geometry (au)
                                ------------------

 O          0.0000000000           -0.1504853540            0.0000000000
 H   _1     0.0000000000            0.9558914028            1.4432444330
 H   _2     0.0000000000            0.9558914028           -1.4432444330





                             Optimization information
                             ------------------------

 Iteration number               :       4
 End of optimization            :       F 
 Energy at this geometry is     :     -76.421476894859
 Energy change from last geom.  :      -0.000001592866
 Predicted change               :      -0.000001567717
 Ratio, actual/predicted change :       1.016042093793
 Norm of gradient               :       0.000079296868
 Norm of step                   :       0.000326015009
 Updated trust radius           :       0.500000000000
 Total effective Hessian index  :       0




 **************************************************************************************
 ****************** Output of molecule and basis set info suppressed ******************
 **************************************************************************************



                     .---------------------------------------.
                     | Starting in Integral Section (HERMIT) |
                     `---------------------------------------'



 ***************************************************************************************
 ****************** Output from **INTEGRALS input processing (HERMIT) ******************
 ***************************************************************************************


 - Using defaults, no **INTEGRALS input found

 Default print level:       -1

 Calculation of one- and two-electron Hamiltonian integrals.

 Center of mass  (bohr):      0.000000000000     -0.026665345623      0.000000000000
 Operator center (bohr):      0.000000000000      0.000000000000      0.000000000000
 Gauge origin    (bohr):      0.000000000000      0.000000000000      0.000000000000
 Dipole origin   (bohr):      0.000000000000      0.000000000000      0.000000000000


                      Nuclear contribution to dipole moments
                      --------------------------------------

                 au               Debye          C m (/(10**-30)

      y      0.70789997         1.79930214         6.00182591



 Threshold for neglecting two-electron integrals:  1.00D-12
 HERMIT - Number of two-electron integrals written:       57092 ( 25.7% )
 HERMIT - Megabytes written:                              0.660

  Total CPU  time used in HERMIT:   0.03 seconds
  Total wall time used in HERMIT:   0.02 seconds


                        .----------------------------------.
                        | End of Integral Section (HERMIT) |
                        `----------------------------------'



                   .--------------------------------------------.
                   | Starting in Wave Function Section (SIRIUS) |
                   `--------------------------------------------'

* Read MO coefficients from SIRIUS.RST with label "NEWORB  " and header info: 13May19  FOCKDIIS

 **********************************************************************
 *SIRIUS* a direct, restricted step, second order MCSCF program       *
 **********************************************************************

 (Wave function specification suppressed here, see output above for initial geometry.)


 ***********************************************
 ***** DIIS acceleration of SCF iterations *****
 ***********************************************

 C1-DIIS algorithm; max error vectors =    8

 Iter      Total energy        Error norm    Delta(E)  DIIS dim.
 -----------------------------------------------------------------------------

Calculating AODFTINT because geometry has changed.
     (Precalculated AO two-electron integrals are transformed to P-supermatrix elements.
      Threshold for discarding integrals :  1.00D-12 )
      K-S energy, electrons, error :     -7.512859615851   9.9999998039   -1.96D-07
@  1    -76.4214768988        1.79027D-04   -3.90D-09    1
      Virial theorem: -V/T =      2.002623
@    MULPOP   O      -0.50; H   _1  0.25; H   _2  0.25; 
 -----------------------------------------------------------------------------
      K-S energy, electrons, error :     -7.512829054096   9.9999998039   -1.96D-07
@  2    -76.4214769001        9.13375D-05   -1.34D-09    2
      Virial theorem: -V/T =      2.002626
@    MULPOP   O      -0.50; H   _1  0.25; H   _2  0.25; 
 -----------------------------------------------------------------------------
      K-S energy, electrons, error :     -7.512859003192   9.9999998039   -1.96D-07
@  3    -76.4214769002        8.36188D-05   -6.08D-11    3
      Virial theorem: -V/T =      2.002623
@    MULPOP   O      -0.50; H   _1  0.25; H   _2  0.25; 
 -----------------------------------------------------------------------------
      K-S energy, electrons, error :     -7.512844820213   9.9999998039   -1.96D-07
@  4    -76.4214769004        3.45262D-06   -2.89D-10    4

@ *** DIIS converged in   4 iterations !
@     Converged SCF energy, gradient:    -76.421476900449    3.45D-06
    - total time used in SIRFCK :              0.00 seconds


 *** SCF orbital energy analysis ***

 Only the 20 lowest virtual orbital energies printed in each symmetry.

 Number of electrons :   10
 Orbital occupations :    3    1    1    0

 Sym       Kohn-Sham orbital energies

1 A1    -19.12990367    -1.01969669    -0.39337441    -0.02103528     0.14046994
          0.15609439     0.22776050     0.54731042     0.95760779     1.23400066
          1.35545136     2.12032473     2.39927407     3.30656323     3.67161879
          5.30182139    49.85692723

2 B2     -0.31954970     0.15384353     0.99609041     1.46287260     3.09041495
          4.92473743

3 B1     -0.53968624     0.03100139     0.15610330     0.22259803     0.50105830
          1.00635798     1.66136725     1.98357225     2.56876034     3.88592331
          5.61537599

4 A2      1.25366458     3.13922846

    E(LUMO) :    -0.02103528 au (symmetry 1)
  - E(HOMO) :    -0.31954970 au (symmetry 2)
  ------------------------------------------
    gap     :     0.29851441 au

 --- Writing SIRIFC interface file

 CPU and wall time for SCF :       0.922       0.924


                       .-----------------------------------.
                       | --- Final results from SIRIUS --- |
                       `-----------------------------------'


@    Spin multiplicity:           1
@    Spatial symmetry:            1 ( irrep  A1  in C2v )
@    Total charge of molecule:    0

@    Final DFT energy:            -76.421476900449                 
@    Nuclear repulsion:             9.144793152682
@    Electronic energy:           -85.566270053131

@    Final gradient norm:           0.000003452622

 
     Date and time (Linux)  : Mon May 13 10:05:53 2019
     Host name              : Lab2-333-NPs                            

  Total CPU  time used in SIRIUS :   0.92 seconds
  Total wall time used in SIRIUS :   0.93 seconds

 
     Date and time (Linux)  : Mon May 13 10:05:53 2019
     Host name              : Lab2-333-NPs                            


                     .---------------------------------------.
                     | End of Wave Function Section (SIRIUS) |
                     `---------------------------------------'

 Trust radius squarely increased due to very good ratio.
 Updated trust radius   0.50000

 Center of mass dipole origin  :    0.000000   -0.026665    0.000000

 Center of mass gauge origin   :    0.000000   -0.026665    0.000000


                 .------------------------------------------------.
                 | Starting in Static Property Section (ABACUS) - |
                 `------------------------------------------------'


 
     Date and time (Linux)  : Mon May 13 10:05:53 2019
     Host name              : Lab2-333-NPs                            

 Largest deviation from tra-rot symmetry is in gradient element  1:  3.96E-06


   ***************************************************************************
   ************************ FINAL RESULTS from ABACUS ************************
   ***************************************************************************


 
     Date and time (Linux)  : Mon May 13 10:05:54 2019
     Host name              : Lab2-333-NPs                            
  Total CPU  time used in ABACUS:   0.61 seconds
  Total wall time used in ABACUS:   0.60 seconds


                   .-------------------------------------------.
                   | End of Static Property Section (ABACUS) - |
                   `-------------------------------------------'



            *********************************************************
            *** Output from geometry convergence control (MINEND) ***
            *********************************************************


 Energy converged       yes 
 Gradient converged     yes 
 Step converged         yes 
 Conditions fullfilled   3
 Required conditions     2
 Totally sym. index      0
 Hessian index           0
 End of optimization    yes 


           :::::::::::::::::::::::::::::::::::::::::::::::::::::::::::
           ::::::::::::::: Optimization Control Center :::::::::::::::
           :::::::::::::::::::::::::::::::::::::::::::::::::::::::::::



                               Final geometry (au)
                               -------------------

 O          0.0000000000           -0.1504853540            0.0000000000
 H   _1     0.0000000000            0.9558914028            1.4432444330
 H   _2     0.0000000000            0.9558914028           -1.4432444330





                             Optimization information
                             ------------------------

 Iteration number               :       5
 End of optimization            :       T 
 Energy at this geometry is     :     -76.421476900449
 Energy change from last geom.  :      -0.000000005590
 Predicted change               :      -0.000000005711
 Ratio, actual/predicted change :       0.978878739270
 Norm of gradient               :       0.000004677740
 Norm of step                   :       0.000022083404
 Updated trust radius           :       0.500000000000
 Total effective Hessian index  :       0




          <<<<<<<<<<<<<<<<<<<<<<<<<<<<<<<<<<<<<<<<<<<<<<<<<<<<<<<<<<<<<<
          <<<<<<<<<<<<<<<<<<<<  End of Optimization <<<<<<<<<<<<<<<<<<<<
          <<<<<<<<<<<<<<<<<<<<<<<<<<<<<<<<<<<<<<<<<<<<<<<<<<<<<<<<<<<<<<



                              Final geometry (bohr)
                              ---------------------

 O          0.0000000000           -0.1504853540            0.0000000000
 H   _1     0.0000000000            0.9558914028            1.4432444330
 H   _2     0.0000000000            0.9558914028           -1.4432444330





                      Final geometry (xyz format; angstrom)
                      -------------------------------------

3

O        0.0000000000           -0.0796334199            0.0000000000
H        0.0000000000            0.5058359464            0.7637320636
H        0.0000000000            0.5058359464           -0.7637320636



@ Iter     Energy        Change       GradNorm  Index   StepLen    TrustRad #Rej
@ ------------------------------------------------------------------------------
@   0      -76.420864     0.000000     0.016459    0    0.072220*   0.500000   0 
@   1      -76.421343    -0.000479     0.006537    0    0.053542*   0.500000   0 
@   2      -76.421465    -0.000122     0.004098    0    0.009394*   0.500000   0 
@   3      -76.421475    -0.000011     0.001691    0    0.003174*   0.500000   0 
@   4      -76.421477    -0.000002     0.000079    0    0.000326*   0.500000   0 
@   5      -76.421477    -0.000000     0.000005    0    0.000022*   0.500000   0 

@  *) Newton step taken.


   Interatomic separations (in Angstrom):
   --------------------------------------

            O           H   _1      H   _2
            ------      ------      ------
 O     :    0.000000
 H   _1:    0.962321    0.000000
 H   _2:    0.962321    1.527464    0.000000


  Max    interatomic separation is    1.5275 Angstrom (    2.8865 Bohr)
  between atoms    3 and    2, "H   _2" and "H   _1".

  Min HX interatomic separation is    0.9623 Angstrom (    1.8185 Bohr)


  Bond distances (Angstrom):
  --------------------------

                  atom 1     atom 2       distance
                  ------     ------       --------
  bond distance:  H   _1     O            0.962321
  bond distance:  H   _2     O            0.962321


  Bond angles (degrees):
  ----------------------

                  atom 1     atom 2     atom 3         angle
                  ------     ------     ------         -----
  bond angle:     H   _1     O          H   _2       105.053



@ Geometry converged in  6 iterations!

@ Energy at final geometry is       :     -76.421477 a.u.
@ Energy change during optimization :      -0.000613 a.u.
@                                             -1.609 kJ/mol


 Center of mass dipole origin  :    0.000000   -0.026665    0.000000

 Center of mass gauge origin   :    0.000000   -0.026665    0.000000


                 .------------------------------------------------.
                 | Starting in Static Property Section (ABACUS) - |
                 `------------------------------------------------'


 
     Date and time (Linux)  : Mon May 13 10:05:54 2019
     Host name              : Lab2-333-NPs                            


   ***************************************************************************
   ************************ FINAL RESULTS from ABACUS ************************
   ***************************************************************************


 
     Date and time (Linux)  : Mon May 13 10:05:54 2019
     Host name              : Lab2-333-NPs                            


                             Molecular geometry (au)
                             -----------------------

 O          0.0000000000           -0.1504853540            0.0000000000
 H   _1     0.0000000000            0.9558914028            1.4432444330
 H   _2     0.0000000000            0.9558914028           -1.4432444330





                        Molecular wave function and energy
                        ----------------------------------

     Spatial symmetry   1 ( A1  )
     Spin multiplicity  1
     2 * M_S            0
     State number       1
     Total charge       0

     Total energy        -76.4214769004 au (Hartrees)
                         -2079.53416983 eV
                           -200644.5567 kJ/mol
                            -47955.2000 kcal/mol


                   Scalar Breit-Pauli relativistic corrections
                   -------------------------------------------

     Darwin correction:                          0.1976478436 au
     Mass-velocity correction:                  -0.2496137048 au

     Total relativistic correction:             -0.0519658612 au ( 0.0680%)
     Non-relativistic + relativistic energy:   -76.4734427617 au



      (Note that these corrections are NOT included in the results below.)


                                  Dipole moment
                                  -------------

                 au               Debye          C m (/(10**-30)
              0.849462           2.159117           7.202040


                             Dipole moment components
                             ------------------------

                 au               Debye          C m (/(10**-30)

      y      0.84946218         2.15911737         7.20204032


   Units:   1 a.u. =   2.54175 Debye 
            1 a.u. =   8.47835 (10**-30) C m (SI)




   Interatomic separations (in Angstrom):
   --------------------------------------

            O           H   _1      H   _2
            ------      ------      ------
 O     :    0.000000
 H   _1:    0.962321    0.000000
 H   _2:    0.962321    1.527464    0.000000


  Max    interatomic separation is    1.5275 Angstrom (    2.8865 Bohr)
  between atoms    3 and    2, "H   _2" and "H   _1".

  Min HX interatomic separation is    0.9623 Angstrom (    1.8185 Bohr)


  Bond distances (Angstrom):
  --------------------------

                  atom 1     atom 2       distance
                  ------     ------       --------
  bond distance:  H   _1     O            0.962321
  bond distance:  H   _2     O            0.962321


  Bond angles (degrees):
  ----------------------

                  atom 1     atom 2     atom 3         angle
                  ------     ------     ------         -----
  bond angle:     H   _1     O          H   _2       105.053


  Total CPU  time used in ABACUS:   0.00 seconds
  Total wall time used in ABACUS:   0.01 seconds


                   .-------------------------------------------.
                   | End of Static Property Section (ABACUS) - |
                   `-------------------------------------------'

  Total CPU  time used in DALTON:  11.83 seconds
  Total wall time used in DALTON:  11.93 seconds

 
     Date and time (Linux)  : Mon May 13 10:05:54 2019
     Host name              : Lab2-333-NPs                            
